
    -----------------------------------------------------------------------
          Psi4: An Open-Source Ab Initio Electronic Structure Package
                               Psi4 1.2.1 release

                         Git: Rev {HEAD} 406f4de 


    R. M. Parrish, L. A. Burns, D. G. A. Smith, A. C. Simmonett,
    A. E. DePrince III, E. G. Hohenstein, U. Bozkaya, A. Yu. Sokolov,
    R. Di Remigio, R. M. Richard, J. F. Gonthier, A. M. James,
    H. R. McAlexander, A. Kumar, M. Saitow, X. Wang, B. P. Pritchard,
    P. Verma, H. F. Schaefer III, K. Patkowski, R. A. King, E. F. Valeev,
    F. A. Evangelista, J. M. Turney, T. D. Crawford, and C. D. Sherrill,
    J. Chem. Theory Comput. 13(7) pp 3185--3197 (2017).
    (doi: 10.1021/acs.jctc.7b00174)


                         Additional Contributions by
    P. Kraus, H. Kruse, M. H. Lechner, M. C. Schieber, and R. A. Shaw

    -----------------------------------------------------------------------


    Psi4 started on: Saturday, 29 September 2018 04:37PM

    Process ID: 30332
    Host:       loro.prib.upf.edu
    PSIDATADIR: /shared/joao/test_parameterize/miniconda3/share/psi4
    Memory:     500.0 MiB
    Threads:    1
    
  ==> Input File <==

--------------------------------------------------------------------------
set_num_threads(1)
set_memory('5348 MB')

set { scf_mem_safety_factor 0.7 }

set { reference rks }
set { basis cc-pVDZ }

molecule MOL {
    0 1
    noreorient
    nocom
    symmetry c1
    O    1.014300  -0.002300   0.060500
    O    2.462400  -0.107500  -0.002400
    H    0.821200  -0.823600  -0.430600
    H    2.496858  -1.065097  -0.188564
}

set optking { frozen_dihedral = (" 3 1 2 4 ") }

set optking { dynamic_level = 1 
 geom_maxiter = 250
 print_trajectory_xyz_file = True }

energy, wfn = optimize('B3LYP-D3', return_wfn=True)

import os
os.chdir(os.environ['HTMD_PSI4_WORKDIR'])

oeprop(wfn, 'DIPOLE', 'QUADRUPOLE', 'MULLIKEN_CHARGES')

with open('psi4out.xyz', 'w') as f:
    f.write('4 ' )
    f.write('%.12f\n' % energy)
    f.write(MOL.save_string_xyz())
--------------------------------------------------------------------------
  Threads set to 1 by Python driver.

  Memory set to   4.981 GiB by Python driver.
gradient() will perform analytic gradient computation.

*** tstart() called on loro.prib.upf.edu
*** at Sat Sep 29 16:37:39 2018

   => Loading Basis Set <=

    Name: CC-PVDZ
    Role: ORBITAL
    Keyword: BASIS
    atoms 1-2 entry O          line   198 file /shared/joao/test_parameterize/miniconda3/share/psi4/basis/cc-pvdz.gbs 
    atoms 3-4 entry H          line    22 file /shared/joao/test_parameterize/miniconda3/share/psi4/basis/cc-pvdz.gbs 


         ---------------------------------------------------------
                                   SCF
            by Justin Turney, Rob Parrish, Andy Simmonett
                             and Daniel Smith
                              RKS Reference
                        1 Threads,   5100 MiB Core
         ---------------------------------------------------------

  ==> Geometry <==

    Molecular point group: c1
    Full point group: C1

    Geometry (in Angstrom), charge = 0, multiplicity = 1:

       Center              X                  Y                   Z               Mass       
    ------------   -----------------  -----------------  -----------------  -----------------
         O            1.014300000000    -0.002300000000     0.060500000000    15.994914619560
         O            2.462400000000    -0.107500000000    -0.002400000000    15.994914619560
         H            0.821200000000    -0.823600000000    -0.430600000000     1.007825032070
         H            2.496858000000    -1.065097000000    -0.188564000000     1.007825032070

  Running in c1 symmetry.

  Rotational constants: A =      9.34934  B =      0.13937  C =      0.13746 [cm^-1]
  Rotational constants: A = 280286.04161  B =   4178.22624  C =   4121.09448 [MHz]
  Nuclear repulsion =   36.885818696433063

  Charge       = 0
  Multiplicity = 1
  Electrons    = 18
  Nalpha       = 9
  Nbeta        = 9

  ==> Algorithm <==

  SCF Algorithm Type is DF.
  DIIS enabled.
  MOM disabled.
  Fractional occupation disabled.
  Guess Type is SAD.
  Energy threshold   = 1.00e-08
  Density threshold  = 1.00e-08
  Integral threshold = 0.00e+00

  ==> Primary Basis <==

  Basis Set: CC-PVDZ
    Blend: CC-PVDZ
    Number of shells: 18
    Number of basis function: 38
    Number of Cartesian functions: 40
    Spherical Harmonics?: true
    Max angular momentum: 2

  ==> DFT Potential <==

   => Composite Functional: B3LYP-D3ZERO <= 

    B3LYP-d3zero Hyb-GGA Exchange-Correlation Functional

    P. J. Stephens, F. J. Devlin, C. F. Chabalowski, and M. J. Frisch, J. Phys. Chem. 98, 11623 (1994)

    Deriv               =              1
    GGA                 =           TRUE
    Meta                =          FALSE

    Exchange Hybrid     =           TRUE
    MP2 Hybrid          =          FALSE

   => Exchange Functionals <=

    0.0800   Slater exchange
    0.7200         Becke 88

   => Exact (HF) Exchange <=

    0.2000               HF 

   => Correlation Functionals <=

    0.1900   Vosko, Wilk & Nusair (VWN5_RPA)
    0.8100   Lee, Yang & Parr

   => Molecular Quadrature <=

    Radial Scheme       =       TREUTLER
    Pruning Scheme      =           FLAT
    Nuclear Scheme      =       TREUTLER

    BS radius alpha     =              1
    Pruning alpha       =              1
    Radial Points       =             75
    Spherical Points    =            302
    Total Points        =          88272
    Total Blocks        =            713
    Max Points          =            256
    Max Functions       =             38

   => -D3ZERO: Empirical Dispersion <=

    Grimme's -D3 (zero-damping) Dispersion Correction
    Grimme S.; Antony J.; Ehrlich S.; Krieg H. (2010), J. Chem. Phys., 132: 154104

        S6 =   1.000000E+00
        S8 =   1.703000E+00
       SR6 =   1.261000E+00
       SR8 =   1.000000E+00
    ALPHA6 =   1.400000E+01

   => Loading Basis Set <=

    Name: (CC-PVDZ AUX)
    Role: JKFIT
    Keyword: DF_BASIS_SCF
    atoms 1-2 entry O          line   221 file /shared/joao/test_parameterize/miniconda3/share/psi4/basis/cc-pvdz-jkfit.gbs 
    atoms 3-4 entry H          line    51 file /shared/joao/test_parameterize/miniconda3/share/psi4/basis/cc-pvdz-jkfit.gbs 

  ==> Pre-Iterations <==

   -------------------------------------------------------
    Irrep   Nso     Nmo     Nalpha   Nbeta   Ndocc  Nsocc
   -------------------------------------------------------
     A         38      38       0       0       0       0
   -------------------------------------------------------
    Total      38      38       9       9       9       0
   -------------------------------------------------------

  ==> Integral Setup <==

  DFHelper Memory: AOs need 0.003 [GiB]; user supplied 3.486 [GiB]. Using in-core AOs.

  ==> MemDFJK: Density-Fitted J/K Matrices <==

    J tasked:                   Yes
    K tasked:                   Yes
    wK tasked:                   No
    OpenMP threads:               1
    Memory (MB):               3570
    Algorithm:                 Core
    Schwarz Cutoff:           1E-12
    Mask sparsity (%):       0.0000
    Fitting Condition:        1E-12

   => Auxiliary Basis Set <=

  Basis Set: (CC-PVDZ AUX)
    Blend: CC-PVDZ-JKFIT
    Number of shells: 66
    Number of basis function: 186
    Number of Cartesian functions: 212
    Spherical Harmonics?: true
    Max angular momentum: 3

  Minimum eigenvalue in the overlap matrix is 2.3912946352E-02.
  Using Symmetric Orthogonalization.

  SCF Guess: Superposition of Atomic Densities via on-the-fly atomic UHF.

  ==> Iterations <==

                           Total Energy        Delta E     RMS |[F,P]|

   @DF-RKS iter   0:  -151.57319635629625   -1.51573e+02   4.91813e-02 
   @DF-RKS iter   1:  -151.50264280728157    7.05535e-02   7.51695e-03 
   @DF-RKS iter   2:  -151.50083501705478    1.80779e-03   7.93878e-03 DIIS
   @DF-RKS iter   3:  -151.53472228052115   -3.38873e-02   8.85299e-04 DIIS
   @DF-RKS iter   4:  -151.53511149545832   -3.89215e-04   8.87088e-05 DIIS
   @DF-RKS iter   5:  -151.53511264444614   -1.14899e-06   8.80177e-05 DIIS
   @DF-RKS iter   6:  -151.53511667665126   -4.03221e-06   1.20694e-05 DIIS
   @DF-RKS iter   7:  -151.53511676819053   -9.15393e-08   1.29798e-06 DIIS
   @DF-RKS iter   8:  -151.53511676940832   -1.21778e-09   1.66405e-07 DIIS
   @DF-RKS iter   9:  -151.53511676943884   -3.05249e-11   3.37857e-08 DIIS
   @DF-RKS iter  10:  -151.53511676943995   -1.10845e-12   4.24256e-09 DIIS

  ==> Post-Iterations <==

    Orbital Energies [Eh]
    ---------------------

    Doubly Occupied:                                                      

       1A    -19.191996     2A    -19.191966     3A     -1.121862  
       4A     -0.887495     5A     -0.560440     6A     -0.428222  
       7A     -0.411079     8A     -0.365357     9A     -0.249276  

    Virtual:                                                              

      10A      0.010407    11A      0.020501    12A      0.132467  
      13A      0.547858    14A      0.573190    15A      0.862634  
      16A      0.864187    17A      0.919220    18A      0.929578  
      19A      0.993600    20A      1.057029    21A      1.157024  
      22A      1.250549    23A      1.322597    24A      1.537930  
      25A      1.627851    26A      1.796844    27A      2.014239  
      28A      2.102468    29A      2.312846    30A      2.375247  
      31A      2.628372    32A      2.862377    33A      2.916253  
      34A      2.995921    35A      3.185773    36A      3.483051  
      37A      3.550904    38A      3.822937  

    Final Occupation by Irrep:
              A 
    DOCC [     9 ]

  Energy converged.

  @DF-RKS Final Energy:  -151.53511676943995

   => Energetics <=

    Nuclear Repulsion Energy =             36.8858186964330628
    One-Electron Energy =                -281.6418000270763287
    Two-Electron Energy =                 107.6840612000212474
    DFT Exchange-Correlation Energy =     -14.4630172388179474
    Empirical Dispersion Energy =          -0.0001794000000000
    VV10 Nonlocal Energy =                  0.0000000000000000
    Total Energy =                       -151.5351167694399521



Properties will be evaluated at   0.000000,   0.000000,   0.000000 [a0]

Properties computed using the SCF density matrix

  Nuclear Dipole Moment: [e a0]
     X:    58.8303      Y:    -5.2291      Z:    -0.2917

  Electronic Dipole Moment: [e a0]
     X:   -58.9314      Y:     4.0954      Z:    -0.1399

  Dipole Moment: [e a0]
     X:    -0.1011      Y:    -1.1337      Z:    -0.4316     Total:     1.2173

  Dipole Moment: [D]
     X:    -0.2570      Y:    -2.8816      Z:    -1.0971     Total:     3.0940


*** tstop() called on loro.prib.upf.edu at Sat Sep 29 16:37:43 2018
Module time:
	user time   =       3.22 seconds =       0.05 minutes
	system time =       0.08 seconds =       0.00 minutes
	total time  =          4 seconds =       0.07 minutes
Total time:
	user time   =       3.22 seconds =       0.05 minutes
	system time =       0.08 seconds =       0.00 minutes
	total time  =          4 seconds =       0.07 minutes

*** tstart() called on loro.prib.upf.edu
*** at Sat Sep 29 16:37:43 2018


         ------------------------------------------------------------
                                   SCF GRAD                          
                          Rob Parrish, Justin Turney,                
                       Andy Simmonett, and Alex Sokolov              
         ------------------------------------------------------------

  ==> Geometry <==

    Molecular point group: c1
    Full point group: C1

    Geometry (in Angstrom), charge = 0, multiplicity = 1:

       Center              X                  Y                   Z               Mass       
    ------------   -----------------  -----------------  -----------------  -----------------
         O            1.014300000000    -0.002300000000     0.060500000000    15.994914619560
         O            2.462400000000    -0.107500000000    -0.002400000000    15.994914619560
         H            0.821200000000    -0.823600000000    -0.430600000000     1.007825032070
         H            2.496858000000    -1.065097000000    -0.188564000000     1.007825032070

  Nuclear repulsion =   36.885818696433063

  ==> Basis Set <==

  Basis Set: CC-PVDZ
    Blend: CC-PVDZ
    Number of shells: 18
    Number of basis function: 38
    Number of Cartesian functions: 40
    Spherical Harmonics?: true
    Max angular momentum: 2

  ==> DFJKGrad: Density-Fitted SCF Gradients <==

    Gradient:                    1
    J tasked:                  Yes
    K tasked:                  Yes
    wK tasked:                  No
    OpenMP threads:              1
    Integrals threads:           1
    Memory (MB):              3570
    Schwarz Cutoff:          0E+00
    Fitting Condition:       1E-12

   => Auxiliary Basis Set <=

  Basis Set: (CC-PVDZ AUX)
    Blend: CC-PVDZ-JKFIT
    Number of shells: 66
    Number of basis function: 186
    Number of Cartesian functions: 212
    Spherical Harmonics?: true
    Max angular momentum: 3

  ==> DFT Potential <==

   => Composite Functional: B3LYP-D3ZERO <= 

    B3LYP-d3zero Hyb-GGA Exchange-Correlation Functional

    P. J. Stephens, F. J. Devlin, C. F. Chabalowski, and M. J. Frisch, J. Phys. Chem. 98, 11623 (1994)

    Deriv               =              1
    GGA                 =           TRUE
    Meta                =          FALSE

    Exchange Hybrid     =           TRUE
    MP2 Hybrid          =          FALSE

   => Exchange Functionals <=

    0.0800   Slater exchange
    0.7200         Becke 88

   => Exact (HF) Exchange <=

    0.2000               HF 

   => Correlation Functionals <=

    0.1900   Vosko, Wilk & Nusair (VWN5_RPA)
    0.8100   Lee, Yang & Parr

   => Molecular Quadrature <=

    Radial Scheme       =       TREUTLER
    Pruning Scheme      =           FLAT
    Nuclear Scheme      =       TREUTLER

    BS radius alpha     =              1
    Pruning alpha       =              1
    Radial Points       =             75
    Spherical Points    =            302
    Total Points        =          88272
    Total Blocks        =            713
    Max Points          =            256
    Max Functions       =             38


  -Total Gradient:
     Atom            X                  Y                   Z
    ------   -----------------  -----------------  -----------------
       1        0.007020725091     0.007069374196     0.002568868158
       2       -0.005678219739     0.007899798352     0.003144245325
       3        0.017292860184    -0.010121426778    -0.000250259823
       4       -0.018635864921    -0.004853347002    -0.005464983893


*** tstop() called on loro.prib.upf.edu at Sat Sep 29 16:37:44 2018
Module time:
	user time   =       0.64 seconds =       0.01 minutes
	system time =       0.02 seconds =       0.00 minutes
	total time  =          1 seconds =       0.02 minutes
Total time:
	user time   =       3.86 seconds =       0.06 minutes
	system time =       0.10 seconds =       0.00 minutes
	total time  =          5 seconds =       0.08 minutes

			-----------------------------------------
			 OPTKING 2.0: for geometry optimizations 
			  - R.A. King,  Bethel University        
			-----------------------------------------
	At level 1: Red. Int., RFO, no backsteps, dynamic trust

	Internal coordinates to be generated automatically.
	Detected frag 1 with atoms:  1 2 3 4
	---Fragment 1 Bond Connectivity---
	 1 : 2 3
	 2 : 1 4
	 3 : 1
	 4 : 2

	Assuming in current code that numbering for constraints corresponds to unified fragment.
	Frozen dihedral atom list: 
	     3     1     2     4
	---Fragment 1 Geometry and Gradient---
	 O           1.9167492166       -0.0043463701        0.1143284310
	 O           4.6532616296       -0.2031455593       -0.0045353427
	 H           1.5518431003       -1.5563784430       -0.8137160728
	 H           4.7183778127       -2.0127416350       -0.3563343185
	             0.0070207251        0.0070693742        0.0025688682
	            -0.0056782197        0.0078997984        0.0031442453
	             0.0172928602       -0.0101214268       -0.0002502598
	            -0.0186358649       -0.0048533470       -0.0054649839

	Previous optimization step data not found.  Starting new optimization.

	---Fragment 1 Intrafragment Coordinates---
	 - Coordinate -           - BOHR/RAD -       - ANG/DEG -
	 R(1,2)           =         2.746297	       1.453278
	 R(1,3)           =         1.844784	       0.976217
	 R(2,4)           =         1.844625	       0.976133
	 B(1,2,4)         =         1.685490	      96.571478
	 B(2,1,3)         =         1.685473	      96.570488
	*D(3,1,2,4)       =        -0.349066	     -20.000009

	Current energy   :      -151.5351167694

	Generating empirical Hessian (Schlegel '84) for each fragment.
	Taking RFO optimization step.
	Going to follow RFO solution 1.
	Using RFO vector 1.
	Norm of target step-size    0.28552
	Projected energy change by RFO approximation:        -0.0101287254

	Back-transformation to cartesian coordinates...
	Successfully converged to displaced geometry.

	Back-transformation to cartesian coordinates to adjust frozen coordinates...
	Successfully converged to displaced geometry.

	--- Internal Coordinate Step in ANG or DEG, aJ/ANG or AJ/DEG ---
	 ---------------------------------------------------------------------------
	   Coordinate                Previous        Force       Change         New 
	   ----------                --------       ------       ------       ------
	    1 R(1,2)          =      1.453278     0.200596     0.032754     1.486032
	    2 R(1,3)          =      0.976217    -0.043001    -0.005149     0.971069
	    3 R(2,4)          =      0.976133    -0.042383    -0.005073     0.971060
	    4 B(1,2,4)        =     96.571478     0.002624    11.263553   107.835031
	    5 B(2,1,3)        =     96.570488     0.002624    11.265502   107.835990
	    6 *D(3,1,2,4)     =    -20.000009    -0.000000    -0.000000   -20.000009
	 ---------------------------------------------------------------------------
	Successfully symmetrized geometry.

  ==> Convergence Check <==

  Measures of convergence in internal coordinates in au.
  Criteria marked as inactive (o), active & met (*), and active & unmet ( ).
  --------------------------------------------------------------------------------------------- ~
   Step     Total Energy     Delta E     MAX Force     RMS Force      MAX Disp      RMS Disp    ~
  --------------------------------------------------------------------------------------------- ~
    Convergence Criteria    1.00e-06 *    3.00e-04 *             o    1.20e-03 *             o  ~
  --------------------------------------------------------------------------------------------- ~
      1    -151.53511677   -1.52e+02      3.45e-02      2.25e-02 o    1.97e-01      1.16e-01 o  ~
  ---------------------------------------------------------------------------------------------

	Writing optimization data to binary file.
	Structure for next step:
	Cartesian Geometry (in Angstrom)
	    O     0.9961057988  -0.0144948500   0.0337349552
	    O     2.4768718936  -0.1369125400   0.0085175289
	    H     0.6262897403  -0.7808959081  -0.4340686601
	    H     2.6954905673  -1.0661937019  -0.1692478240
			--------------------------
			 OPTKING Finished Execution 
			--------------------------

    Structure for next step:
    Molecular point group: c1
    Full point group: C1

    Geometry (in Angstrom), charge = 0, multiplicity = 1:

    O            0.996105798843    -0.014494849995     0.033734955190
    O            2.476871893576    -0.136912539958     0.008517528898
    H            0.626289740321    -0.780895908098    -0.434068660091
    H            2.695490567260    -1.066193701949    -0.169247823997

gradient() will perform analytic gradient computation.

*** tstart() called on loro.prib.upf.edu
*** at Sat Sep 29 16:37:44 2018

   => Loading Basis Set <=

    Name: CC-PVDZ
    Role: ORBITAL
    Keyword: BASIS
    atoms 1-2 entry O          line   198 file /shared/joao/test_parameterize/miniconda3/share/psi4/basis/cc-pvdz.gbs 
    atoms 3-4 entry H          line    22 file /shared/joao/test_parameterize/miniconda3/share/psi4/basis/cc-pvdz.gbs 


         ---------------------------------------------------------
                                   SCF
            by Justin Turney, Rob Parrish, Andy Simmonett
                             and Daniel Smith
                              RKS Reference
                        1 Threads,   5100 MiB Core
         ---------------------------------------------------------

  ==> Geometry <==

    Molecular point group: c1
    Full point group: C1

    Geometry (in Angstrom), charge = 0, multiplicity = 1:

       Center              X                  Y                   Z               Mass       
    ------------   -----------------  -----------------  -----------------  -----------------
         O            0.996105798843    -0.014494849995     0.033734955190    15.994914619560
         O            2.476871893576    -0.136912539958     0.008517528898    15.994914619560
         H            0.626289740321    -0.780895908098    -0.434068660091     1.007825032070
         H            2.695490567260    -1.066193701949    -0.169247823997     1.007825032070

  Running in c1 symmetry.

  Rotational constants: A =     10.39525  B =      0.13768  C =      0.13598 [cm^-1]
  Rotational constants: A = 311641.87206  B =   4127.50304  C =   4076.60219 [MHz]
  Nuclear repulsion =   35.975819124080530

  Charge       = 0
  Multiplicity = 1
  Electrons    = 18
  Nalpha       = 9
  Nbeta        = 9

  ==> Algorithm <==

  SCF Algorithm Type is DF.
  DIIS enabled.
  MOM disabled.
  Fractional occupation disabled.
  Guess Type is READ.
  Energy threshold   = 1.00e-08
  Density threshold  = 1.00e-08
  Integral threshold = 0.00e+00

  ==> Primary Basis <==

  Basis Set: CC-PVDZ
    Blend: CC-PVDZ
    Number of shells: 18
    Number of basis function: 38
    Number of Cartesian functions: 40
    Spherical Harmonics?: true
    Max angular momentum: 2

  ==> DFT Potential <==

   => Composite Functional: B3LYP-D3ZERO <= 

    B3LYP-d3zero Hyb-GGA Exchange-Correlation Functional

    P. J. Stephens, F. J. Devlin, C. F. Chabalowski, and M. J. Frisch, J. Phys. Chem. 98, 11623 (1994)

    Deriv               =              1
    GGA                 =           TRUE
    Meta                =          FALSE

    Exchange Hybrid     =           TRUE
    MP2 Hybrid          =          FALSE

   => Exchange Functionals <=

    0.0800   Slater exchange
    0.7200         Becke 88

   => Exact (HF) Exchange <=

    0.2000               HF 

   => Correlation Functionals <=

    0.1900   Vosko, Wilk & Nusair (VWN5_RPA)
    0.8100   Lee, Yang & Parr

   => Molecular Quadrature <=

    Radial Scheme       =       TREUTLER
    Pruning Scheme      =           FLAT
    Nuclear Scheme      =       TREUTLER

    BS radius alpha     =              1
    Pruning alpha       =              1
    Radial Points       =             75
    Spherical Points    =            302
    Total Points        =          88310
    Total Blocks        =            709
    Max Points          =            256
    Max Functions       =             38

   => -D3ZERO: Empirical Dispersion <=

    Grimme's -D3 (zero-damping) Dispersion Correction
    Grimme S.; Antony J.; Ehrlich S.; Krieg H. (2010), J. Chem. Phys., 132: 154104

        S6 =   1.000000E+00
        S8 =   1.703000E+00
       SR6 =   1.261000E+00
       SR8 =   1.000000E+00
    ALPHA6 =   1.400000E+01

   => Loading Basis Set <=

    Name: (CC-PVDZ AUX)
    Role: JKFIT
    Keyword: DF_BASIS_SCF
    atoms 1-2 entry O          line   221 file /shared/joao/test_parameterize/miniconda3/share/psi4/basis/cc-pvdz-jkfit.gbs 
    atoms 3-4 entry H          line    51 file /shared/joao/test_parameterize/miniconda3/share/psi4/basis/cc-pvdz-jkfit.gbs 

  Reading orbitals from file 180, no projection.

  ==> Pre-Iterations <==

   -------------------------------------------------------
    Irrep   Nso     Nmo     Nalpha   Nbeta   Ndocc  Nsocc
   -------------------------------------------------------
     A         38      38       0       0       0       0
   -------------------------------------------------------
    Total      38      38       9       9       9       0
   -------------------------------------------------------

  ==> Integral Setup <==

  DFHelper Memory: AOs need 0.003 [GiB]; user supplied 3.486 [GiB]. Using in-core AOs.

  ==> MemDFJK: Density-Fitted J/K Matrices <==

    J tasked:                   Yes
    K tasked:                   Yes
    wK tasked:                   No
    OpenMP threads:               1
    Memory (MB):               3570
    Algorithm:                 Core
    Schwarz Cutoff:           1E-12
    Mask sparsity (%):       0.0000
    Fitting Condition:        1E-12

   => Auxiliary Basis Set <=

  Basis Set: (CC-PVDZ AUX)
    Blend: CC-PVDZ-JKFIT
    Number of shells: 66
    Number of basis function: 186
    Number of Cartesian functions: 212
    Spherical Harmonics?: true
    Max angular momentum: 3

  Minimum eigenvalue in the overlap matrix is 2.6820278783E-02.
  Using Symmetric Orthogonalization.

  SCF Guess: Orbitals guess was supplied from a previous computation.

  ==> Iterations <==

                           Total Energy        Delta E     RMS |[F,P]|

   @DF-RKS iter   0:  -151.52868100139153   -1.51529e+02   3.52492e-03 
   @DF-RKS iter   1:  -151.53752277364725   -8.84177e-03   1.16352e-03 
   @DF-RKS iter   2:  -151.53793528101659   -4.12507e-04   7.23694e-04 DIIS
   @DF-RKS iter   3:  -151.53819290784776   -2.57627e-04   2.07821e-04 DIIS
   @DF-RKS iter   4:  -151.53821614922890   -2.32414e-05   2.24237e-05 DIIS
   @DF-RKS iter   5:  -151.53821649813142   -3.48903e-07   2.33303e-06 DIIS
   @DF-RKS iter   6:  -151.53821649698074    1.15068e-09   3.34719e-06 DIIS
   @DF-RKS iter   7:  -151.53821650297161   -5.99087e-09   1.01442e-07 DIIS
   @DF-RKS iter   8:  -151.53821650298264   -1.10276e-11   1.43063e-08 DIIS
   @DF-RKS iter   9:  -151.53821650298269   -5.68434e-14   1.79697e-09 DIIS

  ==> Post-Iterations <==

    Orbital Energies [Eh]
    ---------------------

    Doubly Occupied:                                                      

       1A    -19.190796     2A    -19.190769     3A     -1.094225  
       4A     -0.901286     5A     -0.559512     6A     -0.411036  
       7A     -0.399516     8A     -0.361059     9A     -0.252119  

    Virtual:                                                              

      10A     -0.006524    11A      0.028104    12A      0.122700  
      13A      0.548827    14A      0.582497    15A      0.856072  
      16A      0.868900    17A      0.953153    18A      0.955673  
      19A      0.983423    20A      1.067149    21A      1.265437  
      22A      1.285683    23A      1.346402    24A      1.456463  
      25A      1.539644    26A      1.814852    27A      2.033843  
      28A      2.098483    29A      2.346408    30A      2.366139  
      31A      2.642938    32A      2.865659    33A      2.911941  
      34A      2.961097    35A      3.140975    36A      3.546175  
      37A      3.549097    38A      3.748412  

    Final Occupation by Irrep:
              A 
    DOCC [     9 ]

  Energy converged.

  @DF-RKS Final Energy:  -151.53821650298269

   => Energetics <=

    Nuclear Repulsion Energy =             35.9758191240805303
    One-Electron Energy =                -279.9322052052817753
    Two-Electron Energy =                 106.8663127055218496
    DFT Exchange-Correlation Energy =     -14.4477436273033160
    Empirical Dispersion Energy =          -0.0003995000000000
    VV10 Nonlocal Energy =                  0.0000000000000000
    Total Energy =                       -151.5382165029826638



Properties will be evaluated at   0.000000,   0.000000,   0.000000 [a0]

Properties computed using the SCF density matrix

  Nuclear Dipole Moment: [e a0]
     X:    58.7811      Y:    -5.7794      Z:    -0.5013

  Electronic Dipole Moment: [e a0]
     X:   -58.8826      Y:     4.6403      Z:     0.0676

  Dipole Moment: [e a0]
     X:    -0.1016      Y:    -1.1392      Z:    -0.4337     Total:     1.2232

  Dipole Moment: [D]
     X:    -0.2582      Y:    -2.8955      Z:    -1.1024     Total:     3.1090


*** tstop() called on loro.prib.upf.edu at Sat Sep 29 16:37:48 2018
Module time:
	user time   =       2.62 seconds =       0.04 minutes
	system time =       0.09 seconds =       0.00 minutes
	total time  =          4 seconds =       0.07 minutes
Total time:
	user time   =       6.50 seconds =       0.11 minutes
	system time =       0.19 seconds =       0.00 minutes
	total time  =          9 seconds =       0.15 minutes

*** tstart() called on loro.prib.upf.edu
*** at Sat Sep 29 16:37:48 2018


         ------------------------------------------------------------
                                   SCF GRAD                          
                          Rob Parrish, Justin Turney,                
                       Andy Simmonett, and Alex Sokolov              
         ------------------------------------------------------------

  ==> Geometry <==

    Molecular point group: c1
    Full point group: C1

    Geometry (in Angstrom), charge = 0, multiplicity = 1:

       Center              X                  Y                   Z               Mass       
    ------------   -----------------  -----------------  -----------------  -----------------
         O            0.996105798843    -0.014494849995     0.033734955190    15.994914619560
         O            2.476871893576    -0.136912539958     0.008517528898    15.994914619560
         H            0.626289740321    -0.780895908098    -0.434068660091     1.007825032070
         H            2.695490567260    -1.066193701949    -0.169247823997     1.007825032070

  Nuclear repulsion =   35.975819124080530

  ==> Basis Set <==

  Basis Set: CC-PVDZ
    Blend: CC-PVDZ
    Number of shells: 18
    Number of basis function: 38
    Number of Cartesian functions: 40
    Spherical Harmonics?: true
    Max angular momentum: 2

  ==> DFJKGrad: Density-Fitted SCF Gradients <==

    Gradient:                    1
    J tasked:                  Yes
    K tasked:                  Yes
    wK tasked:                  No
    OpenMP threads:              1
    Integrals threads:           1
    Memory (MB):              3570
    Schwarz Cutoff:          0E+00
    Fitting Condition:       1E-12

   => Auxiliary Basis Set <=

  Basis Set: (CC-PVDZ AUX)
    Blend: CC-PVDZ-JKFIT
    Number of shells: 66
    Number of basis function: 186
    Number of Cartesian functions: 212
    Spherical Harmonics?: true
    Max angular momentum: 3

  ==> DFT Potential <==

   => Composite Functional: B3LYP-D3ZERO <= 

    B3LYP-d3zero Hyb-GGA Exchange-Correlation Functional

    P. J. Stephens, F. J. Devlin, C. F. Chabalowski, and M. J. Frisch, J. Phys. Chem. 98, 11623 (1994)

    Deriv               =              1
    GGA                 =           TRUE
    Meta                =          FALSE

    Exchange Hybrid     =           TRUE
    MP2 Hybrid          =          FALSE

   => Exchange Functionals <=

    0.0800   Slater exchange
    0.7200         Becke 88

   => Exact (HF) Exchange <=

    0.2000               HF 

   => Correlation Functionals <=

    0.1900   Vosko, Wilk & Nusair (VWN5_RPA)
    0.8100   Lee, Yang & Parr

   => Molecular Quadrature <=

    Radial Scheme       =       TREUTLER
    Pruning Scheme      =           FLAT
    Nuclear Scheme      =       TREUTLER

    BS radius alpha     =              1
    Pruning alpha       =              1
    Radial Points       =             75
    Spherical Points    =            302
    Total Points        =          88310
    Total Blocks        =            709
    Max Points          =            256
    Max Functions       =             38


  -Total Gradient:
     Atom            X                  Y                   Z
    ------   -----------------  -----------------  -----------------
       1       -0.014025622923    -0.002082338040    -0.008431558624
       2        0.013017320611    -0.009272766707     0.004109875888
       3       -0.005925726325     0.004785761453     0.005986416413
       4        0.006933258491     0.006560742184    -0.001668005695


*** tstop() called on loro.prib.upf.edu at Sat Sep 29 16:37:48 2018
Module time:
	user time   =       0.62 seconds =       0.01 minutes
	system time =       0.01 seconds =       0.00 minutes
	total time  =          0 seconds =       0.00 minutes
Total time:
	user time   =       7.13 seconds =       0.12 minutes
	system time =       0.20 seconds =       0.00 minutes
	total time  =          9 seconds =       0.15 minutes

			-----------------------------------------
			 OPTKING 2.0: for geometry optimizations 
			  - R.A. King,  Bethel University        
			-----------------------------------------
	At level 1: Red. Int., RFO, no backsteps, dynamic trust

	Previous internal coordinate definitions found.
	---Fragment 1 Geometry and Gradient---
	 O           1.8823671592       -0.0273912968        0.0637498264
	 O           4.6806095451       -0.2587272047        0.0160957969
	 H           1.1835160890       -1.4756794046       -0.8202708904
	 H           5.0937389659       -2.0148141013       -0.3198320359
	            -0.0140256229       -0.0020823380       -0.0084315586
	             0.0130173206       -0.0092727667        0.0041098759
	            -0.0059257263        0.0047857615        0.0059864164
	             0.0069332585        0.0065607422       -0.0016680057

	---Fragment 1 Intrafragment Coordinates---
	 - Coordinate -           - BOHR/RAD -       - ANG/DEG -
	 R(1,2)           =         2.808193	       1.486032
	 R(1,3)           =         1.835054	       0.971069
	 R(2,4)           =         1.835038	       0.971060
	 B(1,2,4)         =         1.882076	     107.835031
	 B(2,1,3)         =         1.882093	     107.835990
	*D(3,1,2,4)       =        -0.349066	     -20.000009

	Current energy   :      -151.5382165030

	Energy change for the previous step:
		Projected    :        -0.0101287254
		Actual       :        -0.0030997335

	Performing BFGS update.
	Previous computed or guess Hessian on step 1.
	Steps to be used in Hessian update: 1
	Taking RFO optimization step.
	Going to follow RFO solution 1.
	Using RFO vector 1.
	Norm of target step-size    0.08628
	Projected energy change by RFO approximation:        -0.0011443393

	Back-transformation to cartesian coordinates...
	Successfully converged to displaced geometry.

	Back-transformation to cartesian coordinates to adjust frozen coordinates...
	Successfully converged to displaced geometry.

	--- Internal Coordinate Step in ANG or DEG, aJ/ANG or AJ/DEG ---
	 ---------------------------------------------------------------------------
	   Coordinate                Previous        Force       Change         New 
	   ----------                --------       ------       ------       ------
	    1 R(1,2)          =      1.486032    -0.165286    -0.018387     1.467645
	    2 R(1,3)          =      0.971069     0.036304     0.002954     0.974023
	    3 R(2,4)          =      0.971060     0.036370     0.002960     0.974020
	    4 B(1,2,4)        =    107.835031    -0.001137    -3.184347   104.650684
	    5 B(2,1,3)        =    107.835990    -0.001137    -3.185106   104.650884
	    6 *D(3,1,2,4)     =    -20.000009     0.000000     0.000000   -20.000009
	 ---------------------------------------------------------------------------
	Successfully symmetrized geometry.

  ==> Convergence Check <==

  Measures of convergence in internal coordinates in au.
  Criteria marked as inactive (o), active & met (*), and active & unmet ( ).
  ---------------------------------------------------------------------------------------------
   Step     Total Energy     Delta E     MAX Force     RMS Force      MAX Disp      RMS Disp   
  ---------------------------------------------------------------------------------------------
    Convergence Criteria    1.00e-06 *    3.00e-04 *             o    1.20e-03 *             o
  ---------------------------------------------------------------------------------------------
      2    -151.53821650   -3.10e-03      2.01e-02      1.22e-02 o    5.56e-02      3.52e-02 o  ~
  ---------------------------------------------------------------------------------------------

	Writing optimization data to binary file.
	Structure for next step:
	Cartesian Geometry (in Angstrom)
	    O     1.0059421771  -0.0091307284   0.0422821216
	    O     2.4684982258  -0.1258061152   0.0062401344
	    H     0.6842484924  -0.7957047120  -0.4336758420
	    H     2.6360691047  -1.0678554445  -0.1759104140
			--------------------------
			 OPTKING Finished Execution 
			--------------------------

    Structure for next step:
    Molecular point group: c1
    Full point group: C1

    Geometry (in Angstrom), charge = 0, multiplicity = 1:

    O            1.005942177081    -0.009130728363     0.042282121647
    O            2.468498225819    -0.125806115206     0.006240134355
    H            0.684248492429    -0.795704711977    -0.433675842003
    H            2.636069104670    -1.067855444454    -0.175910413999

gradient() will perform analytic gradient computation.

*** tstart() called on loro.prib.upf.edu
*** at Sat Sep 29 16:37:49 2018

   => Loading Basis Set <=

    Name: CC-PVDZ
    Role: ORBITAL
    Keyword: BASIS
    atoms 1-2 entry O          line   198 file /shared/joao/test_parameterize/miniconda3/share/psi4/basis/cc-pvdz.gbs 
    atoms 3-4 entry H          line    22 file /shared/joao/test_parameterize/miniconda3/share/psi4/basis/cc-pvdz.gbs 


         ---------------------------------------------------------
                                   SCF
            by Justin Turney, Rob Parrish, Andy Simmonett
                             and Daniel Smith
                              RKS Reference
                        1 Threads,   5100 MiB Core
         ---------------------------------------------------------

  ==> Geometry <==

    Molecular point group: c1
    Full point group: C1

    Geometry (in Angstrom), charge = 0, multiplicity = 1:

       Center              X                  Y                   Z               Mass       
    ------------   -----------------  -----------------  -----------------  -----------------
         O            1.005942177081    -0.009130728363     0.042282121647    15.994914619560
         O            2.468498225819    -0.125806115206     0.006240134355    15.994914619560
         H            0.684248492429    -0.795704711977    -0.433675842003     1.007825032070
         H            2.636069104670    -1.067855444454    -0.175910413999     1.007825032070

  Running in c1 symmetry.

  Rotational constants: A =      9.98665  B =      0.13843  C =      0.13664 [cm^-1]
  Rotational constants: A = 299392.22392  B =   4150.00169  C =   4096.50491 [MHz]
  Nuclear repulsion =   36.363590693222619

  Charge       = 0
  Multiplicity = 1
  Electrons    = 18
  Nalpha       = 9
  Nbeta        = 9

  ==> Algorithm <==

  SCF Algorithm Type is DF.
  DIIS enabled.
  MOM disabled.
  Fractional occupation disabled.
  Guess Type is READ.
  Energy threshold   = 1.00e-08
  Density threshold  = 1.00e-08
  Integral threshold = 0.00e+00

  ==> Primary Basis <==

  Basis Set: CC-PVDZ
    Blend: CC-PVDZ
    Number of shells: 18
    Number of basis function: 38
    Number of Cartesian functions: 40
    Spherical Harmonics?: true
    Max angular momentum: 2

  ==> DFT Potential <==

   => Composite Functional: B3LYP-D3ZERO <= 

    B3LYP-d3zero Hyb-GGA Exchange-Correlation Functional

    P. J. Stephens, F. J. Devlin, C. F. Chabalowski, and M. J. Frisch, J. Phys. Chem. 98, 11623 (1994)

    Deriv               =              1
    GGA                 =           TRUE
    Meta                =          FALSE

    Exchange Hybrid     =           TRUE
    MP2 Hybrid          =          FALSE

   => Exchange Functionals <=

    0.0800   Slater exchange
    0.7200         Becke 88

   => Exact (HF) Exchange <=

    0.2000               HF 

   => Correlation Functionals <=

    0.1900   Vosko, Wilk & Nusair (VWN5_RPA)
    0.8100   Lee, Yang & Parr

   => Molecular Quadrature <=

    Radial Scheme       =       TREUTLER
    Pruning Scheme      =           FLAT
    Nuclear Scheme      =       TREUTLER

    BS radius alpha     =              1
    Pruning alpha       =              1
    Radial Points       =             75
    Spherical Points    =            302
    Total Points        =          88296
    Total Blocks        =            712
    Max Points          =            255
    Max Functions       =             38

   => -D3ZERO: Empirical Dispersion <=

    Grimme's -D3 (zero-damping) Dispersion Correction
    Grimme S.; Antony J.; Ehrlich S.; Krieg H. (2010), J. Chem. Phys., 132: 154104

        S6 =   1.000000E+00
        S8 =   1.703000E+00
       SR6 =   1.261000E+00
       SR8 =   1.000000E+00
    ALPHA6 =   1.400000E+01

   => Loading Basis Set <=

    Name: (CC-PVDZ AUX)
    Role: JKFIT
    Keyword: DF_BASIS_SCF
    atoms 1-2 entry O          line   221 file /shared/joao/test_parameterize/miniconda3/share/psi4/basis/cc-pvdz-jkfit.gbs 
    atoms 3-4 entry H          line    51 file /shared/joao/test_parameterize/miniconda3/share/psi4/basis/cc-pvdz-jkfit.gbs 

  Reading orbitals from file 180, no projection.

  ==> Pre-Iterations <==

   -------------------------------------------------------
    Irrep   Nso     Nmo     Nalpha   Nbeta   Ndocc  Nsocc
   -------------------------------------------------------
     A         38      38       0       0       0       0
   -------------------------------------------------------
    Total      38      38       9       9       9       0
   -------------------------------------------------------

  ==> Integral Setup <==

  DFHelper Memory: AOs need 0.003 [GiB]; user supplied 3.486 [GiB]. Using in-core AOs.

  ==> MemDFJK: Density-Fitted J/K Matrices <==

    J tasked:                   Yes
    K tasked:                   Yes
    wK tasked:                   No
    OpenMP threads:               1
    Memory (MB):               3570
    Algorithm:                 Core
    Schwarz Cutoff:           1E-12
    Mask sparsity (%):       0.0000
    Fitting Condition:        1E-12

   => Auxiliary Basis Set <=

  Basis Set: (CC-PVDZ AUX)
    Blend: CC-PVDZ-JKFIT
    Number of shells: 66
    Number of basis function: 186
    Number of Cartesian functions: 212
    Spherical Harmonics?: true
    Max angular momentum: 3

  Minimum eigenvalue in the overlap matrix is 2.5430320882E-02.
  Using Symmetric Orthogonalization.

  SCF Guess: Orbitals guess was supplied from a previous computation.

  ==> Iterations <==

                           Total Energy        Delta E     RMS |[F,P]|

   @DF-RKS iter   0:  -151.54214701645492   -1.51542e+02   1.28164e-03 
   @DF-RKS iter   1:  -151.53956581426334    2.58120e-03   4.38218e-04 
   @DF-RKS iter   2:  -151.53963433446006   -6.85202e-05   2.11527e-04 DIIS
   @DF-RKS iter   3:  -151.53965647813089   -2.21437e-05   3.64825e-05 DIIS
   @DF-RKS iter   4:  -151.53965717048249   -6.92352e-07   7.63167e-06 DIIS
   @DF-RKS iter   5:  -151.53965720896940   -3.84869e-08   4.63922e-07 DIIS
   @DF-RKS iter   6:  -151.53965720908928   -1.19883e-10   4.33773e-07 DIIS
   @DF-RKS iter   7:  -151.53965720918771   -9.84244e-11   5.42886e-08 DIIS
   @DF-RKS iter   8:  -151.53965720918956   -1.84741e-12   5.90788e-09 DIIS

  ==> Post-Iterations <==

    Orbital Energies [Eh]
    ---------------------

    Doubly Occupied:                                                      

       1A    -19.190594     2A    -19.190565     3A     -1.104439  
       4A     -0.895528     5A     -0.560743     6A     -0.416963  
       7A     -0.403344     8A     -0.362203     9A     -0.249801  

    Virtual:                                                              

      10A      0.006497    11A      0.022662    12A      0.126310  
      13A      0.552995    14A      0.577286    15A      0.858382  
      16A      0.868644    17A      0.943724    18A      0.944342  
      19A      0.985101    20A      1.061681    21A      1.256363  
      22A      1.265702    23A      1.335121    24A      1.492925  
      25A      1.545110    26A      1.808592    27A      2.028455  
      28A      2.095368    29A      2.327701    30A      2.371479  
      31A      2.632090    32A      2.862531    33A      2.925399  
      34A      2.970587    35A      3.168821    36A      3.525738  
      37A      3.545513    38A      3.781589  

    Final Occupation by Irrep:
              A 
    DOCC [     9 ]

  Energy converged.

  @DF-RKS Final Energy:  -151.53965720918956

   => Energetics <=

    Nuclear Repulsion Energy =             36.3635906932226192
    One-Electron Energy =                -280.6791014821333192
    Two-Electron Energy =                 107.2300679315137728
    DFT Exchange-Correlation Energy =     -14.4539004017926320
    Empirical Dispersion Energy =          -0.0003139500000000
    VV10 Nonlocal Energy =                  0.0000000000000000
    Total Energy =                       -151.5396572091895280



Properties will be evaluated at   0.000000,   0.000000,   0.000000 [a0]

Properties computed using the SCF density matrix

  Nuclear Dipole Moment: [e a0]
     X:    58.8004      Y:    -5.5616      Z:    -0.4184

  Electronic Dipole Moment: [e a0]
     X:   -58.9024      Y:     4.4176      Z:    -0.0171

  Dipole Moment: [e a0]
     X:    -0.1020      Y:    -1.1440      Z:    -0.4355     Total:     1.2283

  Dipole Moment: [D]
     X:    -0.2592      Y:    -2.9077      Z:    -1.1070     Total:     3.1221


*** tstop() called on loro.prib.upf.edu at Sat Sep 29 16:37:52 2018
Module time:
	user time   =       2.39 seconds =       0.04 minutes
	system time =       0.07 seconds =       0.00 minutes
	total time  =          3 seconds =       0.05 minutes
Total time:
	user time   =       9.53 seconds =       0.16 minutes
	system time =       0.28 seconds =       0.00 minutes
	total time  =         13 seconds =       0.22 minutes

*** tstart() called on loro.prib.upf.edu
*** at Sat Sep 29 16:37:52 2018


         ------------------------------------------------------------
                                   SCF GRAD                          
                          Rob Parrish, Justin Turney,                
                       Andy Simmonett, and Alex Sokolov              
         ------------------------------------------------------------

  ==> Geometry <==

    Molecular point group: c1
    Full point group: C1

    Geometry (in Angstrom), charge = 0, multiplicity = 1:

       Center              X                  Y                   Z               Mass       
    ------------   -----------------  -----------------  -----------------  -----------------
         O            1.005942177081    -0.009130728363     0.042282121647    15.994914619560
         O            2.468498225819    -0.125806115206     0.006240134355    15.994914619560
         H            0.684248492429    -0.795704711977    -0.433675842003     1.007825032070
         H            2.636069104670    -1.067855444454    -0.175910413999     1.007825032070

  Nuclear repulsion =   36.363590693222619

  ==> Basis Set <==

  Basis Set: CC-PVDZ
    Blend: CC-PVDZ
    Number of shells: 18
    Number of basis function: 38
    Number of Cartesian functions: 40
    Spherical Harmonics?: true
    Max angular momentum: 2

  ==> DFJKGrad: Density-Fitted SCF Gradients <==

    Gradient:                    1
    J tasked:                  Yes
    K tasked:                  Yes
    wK tasked:                  No
    OpenMP threads:              1
    Integrals threads:           1
    Memory (MB):              3570
    Schwarz Cutoff:          0E+00
    Fitting Condition:       1E-12

   => Auxiliary Basis Set <=

  Basis Set: (CC-PVDZ AUX)
    Blend: CC-PVDZ-JKFIT
    Number of shells: 66
    Number of basis function: 186
    Number of Cartesian functions: 212
    Spherical Harmonics?: true
    Max angular momentum: 3

  ==> DFT Potential <==

   => Composite Functional: B3LYP-D3ZERO <= 

    B3LYP-d3zero Hyb-GGA Exchange-Correlation Functional

    P. J. Stephens, F. J. Devlin, C. F. Chabalowski, and M. J. Frisch, J. Phys. Chem. 98, 11623 (1994)

    Deriv               =              1
    GGA                 =           TRUE
    Meta                =          FALSE

    Exchange Hybrid     =           TRUE
    MP2 Hybrid          =          FALSE

   => Exchange Functionals <=

    0.0800   Slater exchange
    0.7200         Becke 88

   => Exact (HF) Exchange <=

    0.2000               HF 

   => Correlation Functionals <=

    0.1900   Vosko, Wilk & Nusair (VWN5_RPA)
    0.8100   Lee, Yang & Parr

   => Molecular Quadrature <=

    Radial Scheme       =       TREUTLER
    Pruning Scheme      =           FLAT
    Nuclear Scheme      =       TREUTLER

    BS radius alpha     =              1
    Pruning alpha       =              1
    Radial Points       =             75
    Spherical Points    =            302
    Total Points        =          88296
    Total Blocks        =            712
    Max Points          =            255
    Max Functions       =             38


  -Total Gradient:
     Atom            X                  Y                   Z
    ------   -----------------  -----------------  -----------------
       1       -0.004476504709     0.002195340340    -0.004339339021
       2        0.004499692652    -0.001947212408     0.004434274742
       3       -0.001063279687    -0.001260330721     0.003178948703
       4        0.001040030291     0.001011514586    -0.003274146196


*** tstop() called on loro.prib.upf.edu at Sat Sep 29 16:37:53 2018
Module time:
	user time   =       0.63 seconds =       0.01 minutes
	system time =       0.02 seconds =       0.00 minutes
	total time  =          1 seconds =       0.02 minutes
Total time:
	user time   =      10.16 seconds =       0.17 minutes
	system time =       0.30 seconds =       0.01 minutes
	total time  =         14 seconds =       0.23 minutes

			-----------------------------------------
			 OPTKING 2.0: for geometry optimizations 
			  - R.A. King,  Bethel University        
			-----------------------------------------
	At level 1: Red. Int., RFO, no backsteps, dynamic trust

	Previous internal coordinate definitions found.
	---Fragment 1 Geometry and Gradient---
	 O           1.9009552202       -0.0172545760        0.0799016302
	 O           4.6647856063       -0.2377391036        0.0117921450
	 H           1.2930422575       -1.5036639883       -0.8195285718
	 H           4.9814486752       -2.0179543395       -0.3324225064
	            -0.0044765047        0.0021953403       -0.0043393390
	             0.0044996927       -0.0019472124        0.0044342747
	            -0.0010632797       -0.0012603307        0.0031789487
	             0.0010400303        0.0010115146       -0.0032741462

	---Fragment 1 Intrafragment Coordinates---
	 - Coordinate -           - BOHR/RAD -       - ANG/DEG -
	 R(1,2)           =         2.773447	       1.467645
	 R(1,3)           =         1.840637	       0.974023
	 R(2,4)           =         1.840632	       0.974020
	 B(1,2,4)         =         1.826499	     104.650684
	 B(2,1,3)         =         1.826502	     104.650884
	*D(3,1,2,4)       =        -0.349066	     -20.000009

	Current energy   :      -151.5396572092

	Energy change for the previous step:
		Projected    :        -0.0011443393
		Actual       :        -0.0014407062
	Energy ratio indicates good step: Trust radius increased to 1.000e+00.


	Performing BFGS update.
	Previous computed or guess Hessian on step 1.
	Steps to be used in Hessian update: 2 1
	Taking RFO optimization step.
	Going to follow RFO solution 1.
	Using RFO vector 1.
	Norm of target step-size    0.01377
	Projected energy change by RFO approximation:        -0.0000513919

	Back-transformation to cartesian coordinates...
	Successfully converged to displaced geometry.

	Back-transformation to cartesian coordinates to adjust frozen coordinates...
	Successfully converged to displaced geometry.

	--- Internal Coordinate Step in ANG or DEG, aJ/ANG or AJ/DEG ---
	 ---------------------------------------------------------------------------
	   Coordinate                Previous        Force       Change         New 
	   ----------                --------       ------       ------       ------
	    1 R(1,2)          =      1.467645    -0.045864    -0.006081     1.461564
	    2 R(1,3)          =      0.974023     0.001524    -0.000056     0.973968
	    3 R(2,4)          =      0.974020     0.001546    -0.000052     0.973968
	    4 B(1,2,4)        =    104.650684    -0.000157    -0.307002   104.343681
	    5 B(2,1,3)        =    104.650884    -0.000157    -0.307178   104.343706
	    6 *D(3,1,2,4)     =    -20.000009     0.000000     0.000000   -20.000009
	 ---------------------------------------------------------------------------
	Successfully symmetrized geometry.

  ==> Convergence Check <==

  Measures of convergence in internal coordinates in au.
  Criteria marked as inactive (o), active & met (*), and active & unmet ( ).
  ---------------------------------------------------------------------------------------------
   Step     Total Energy     Delta E     MAX Force     RMS Force      MAX Disp      RMS Disp   
  ---------------------------------------------------------------------------------------------
    Convergence Criteria    1.00e-06 *    3.00e-04 *             o    1.20e-03 *             o
  ---------------------------------------------------------------------------------------------
      3    -151.53965721   -1.44e-03      5.57e-03      2.57e-03 o    1.15e-02      5.62e-03 o  ~
  ---------------------------------------------------------------------------------------------

	Writing optimization data to binary file.
	Structure for next step:
	Cartesian Geometry (in Angstrom)
	    O     1.0090189621  -0.0090609645   0.0431204020
	    O     2.4655219659  -0.1247247516   0.0058396733
	    H     0.6921089355  -0.7971842731  -0.4333696940
	    H     2.6281081365  -1.0675270108  -0.1766543812
			--------------------------
			 OPTKING Finished Execution 
			--------------------------

    Structure for next step:
    Molecular point group: c1
    Full point group: C1

    Geometry (in Angstrom), charge = 0, multiplicity = 1:

    O            1.009018962084    -0.009060964483     0.043120402002
    O            2.465521965892    -0.124724751586     0.005839673260
    H            0.692108935539    -0.797184273143    -0.433369694021
    H            2.628108136485    -1.067527010787    -0.176654381241

gradient() will perform analytic gradient computation.

*** tstart() called on loro.prib.upf.edu
*** at Sat Sep 29 16:37:53 2018

   => Loading Basis Set <=

    Name: CC-PVDZ
    Role: ORBITAL
    Keyword: BASIS
    atoms 1-2 entry O          line   198 file /shared/joao/test_parameterize/miniconda3/share/psi4/basis/cc-pvdz.gbs 
    atoms 3-4 entry H          line    22 file /shared/joao/test_parameterize/miniconda3/share/psi4/basis/cc-pvdz.gbs 


         ---------------------------------------------------------
                                   SCF
            by Justin Turney, Rob Parrish, Andy Simmonett
                             and Daniel Smith
                              RKS Reference
                        1 Threads,   5100 MiB Core
         ---------------------------------------------------------

  ==> Geometry <==

    Molecular point group: c1
    Full point group: C1

    Geometry (in Angstrom), charge = 0, multiplicity = 1:

       Center              X                  Y                   Z               Mass       
    ------------   -----------------  -----------------  -----------------  -----------------
         O            1.009018962084    -0.009060964483     0.043120402002    15.994914619560
         O            2.465521965892    -0.124724751586     0.005839673260    15.994914619560
         H            0.692108935539    -0.797184273143    -0.433369694021     1.007825032070
         H            2.628108136485    -1.067527010787    -0.176654381241     1.007825032070

  Running in c1 symmetry.

  Rotational constants: A =      9.95824  B =      0.13863  C =      0.13683 [cm^-1]
  Rotational constants: A = 298540.54418  B =   4155.91123  C =   4102.12441 [MHz]
  Nuclear repulsion =   36.482590580840984

  Charge       = 0
  Multiplicity = 1
  Electrons    = 18
  Nalpha       = 9
  Nbeta        = 9

  ==> Algorithm <==

  SCF Algorithm Type is DF.
  DIIS enabled.
  MOM disabled.
  Fractional occupation disabled.
  Guess Type is READ.
  Energy threshold   = 1.00e-08
  Density threshold  = 1.00e-08
  Integral threshold = 0.00e+00

  ==> Primary Basis <==

  Basis Set: CC-PVDZ
    Blend: CC-PVDZ
    Number of shells: 18
    Number of basis function: 38
    Number of Cartesian functions: 40
    Spherical Harmonics?: true
    Max angular momentum: 2

  ==> DFT Potential <==

   => Composite Functional: B3LYP-D3ZERO <= 

    B3LYP-d3zero Hyb-GGA Exchange-Correlation Functional

    P. J. Stephens, F. J. Devlin, C. F. Chabalowski, and M. J. Frisch, J. Phys. Chem. 98, 11623 (1994)

    Deriv               =              1
    GGA                 =           TRUE
    Meta                =          FALSE

    Exchange Hybrid     =           TRUE
    MP2 Hybrid          =          FALSE

   => Exchange Functionals <=

    0.0800   Slater exchange
    0.7200         Becke 88

   => Exact (HF) Exchange <=

    0.2000               HF 

   => Correlation Functionals <=

    0.1900   Vosko, Wilk & Nusair (VWN5_RPA)
    0.8100   Lee, Yang & Parr

   => Molecular Quadrature <=

    Radial Scheme       =       TREUTLER
    Pruning Scheme      =           FLAT
    Nuclear Scheme      =       TREUTLER

    BS radius alpha     =              1
    Pruning alpha       =              1
    Radial Points       =             75
    Spherical Points    =            302
    Total Points        =          88294
    Total Blocks        =            711
    Max Points          =            255
    Max Functions       =             38

   => -D3ZERO: Empirical Dispersion <=

    Grimme's -D3 (zero-damping) Dispersion Correction
    Grimme S.; Antony J.; Ehrlich S.; Krieg H. (2010), J. Chem. Phys., 132: 154104

        S6 =   1.000000E+00
        S8 =   1.703000E+00
       SR6 =   1.261000E+00
       SR8 =   1.000000E+00
    ALPHA6 =   1.400000E+01

   => Loading Basis Set <=

    Name: (CC-PVDZ AUX)
    Role: JKFIT
    Keyword: DF_BASIS_SCF
    atoms 1-2 entry O          line   221 file /shared/joao/test_parameterize/miniconda3/share/psi4/basis/cc-pvdz-jkfit.gbs 
    atoms 3-4 entry H          line    51 file /shared/joao/test_parameterize/miniconda3/share/psi4/basis/cc-pvdz-jkfit.gbs 

  Reading orbitals from file 180, no projection.

  ==> Pre-Iterations <==

   -------------------------------------------------------
    Irrep   Nso     Nmo     Nalpha   Nbeta   Ndocc  Nsocc
   -------------------------------------------------------
     A         38      38       0       0       0       0
   -------------------------------------------------------
    Total      38      38       9       9       9       0
   -------------------------------------------------------

  ==> Integral Setup <==

  DFHelper Memory: AOs need 0.003 [GiB]; user supplied 3.486 [GiB]. Using in-core AOs.

  ==> MemDFJK: Density-Fitted J/K Matrices <==

    J tasked:                   Yes
    K tasked:                   Yes
    wK tasked:                   No
    OpenMP threads:               1
    Memory (MB):               3570
    Algorithm:                 Core
    Schwarz Cutoff:           1E-12
    Mask sparsity (%):       0.0000
    Fitting Condition:        1E-12

   => Auxiliary Basis Set <=

  Basis Set: (CC-PVDZ AUX)
    Blend: CC-PVDZ-JKFIT
    Number of shells: 66
    Number of basis function: 186
    Number of Cartesian functions: 212
    Spherical Harmonics?: true
    Max angular momentum: 3

  Minimum eigenvalue in the overlap matrix is 2.5092779310E-02.
  Using Symmetric Orthogonalization.

  SCF Guess: Orbitals guess was supplied from a previous computation.

  ==> Iterations <==

                           Total Energy        Delta E     RMS |[F,P]|

   @DF-RKS iter   0:  -151.54232433379704   -1.51542e+02   3.12447e-04 
   @DF-RKS iter   1:  -151.53970708836061    2.61725e-03   9.72915e-05 
   @DF-RKS iter   2:  -151.53971025476127   -3.16640e-06   4.98799e-05 DIIS
   @DF-RKS iter   3:  -151.53971143918687   -1.18443e-06   9.60296e-06 DIIS
   @DF-RKS iter   4:  -151.53971148836129   -4.91744e-08   8.42083e-07 DIIS
   @DF-RKS iter   5:  -151.53971148890207   -5.40780e-10   1.29587e-07 DIIS
   @DF-RKS iter   6:  -151.53971148890341   -1.33582e-12   1.34012e-07 DIIS
   @DF-RKS iter   7:  -151.53971148891253   -9.12337e-12   2.77971e-08 DIIS
   @DF-RKS iter   8:  -151.53971148891296   -4.26326e-13   1.00742e-09 DIIS

  ==> Post-Iterations <==

    Orbital Energies [Eh]
    ---------------------

    Doubly Occupied:                                                      

       1A    -19.190262     2A    -19.190233     3A     -1.107219  
       4A     -0.894268     5A     -0.561989     6A     -0.418082  
       7A     -0.404073     8A     -0.362105     9A     -0.248911  

    Virtual:                                                              

      10A      0.010053    11A      0.022032    12A      0.127640  
      13A      0.553409    14A      0.577236    15A      0.859255  
      16A      0.868944    17A      0.941996    18A      0.942083  
      19A      0.985185    20A      1.061531    21A      1.251773  
      22A      1.265530    23A      1.334234    24A      1.499454  
      25A      1.546464    26A      1.808802    27A      2.028653  
      28A      2.096380    29A      2.322873    30A      2.375202  
      31A      2.628603    32A      2.861585    33A      2.926885  
      34A      2.977453    35A      3.175825    36A      3.525938  
      37A      3.544387    38A      3.789211  

    Final Occupation by Irrep:
              A 
    DOCC [     9 ]

  Energy converged.

  @DF-RKS Final Energy:  -151.53971148891296

   => Energetics <=

    Nuclear Repulsion Energy =             36.4825905808409843
    One-Electron Energy =                -280.9096980140925552
    Two-Electron Energy =                 107.3440593563295664
    DFT Exchange-Correlation Energy =     -14.4563618219909582
    Empirical Dispersion Energy =          -0.0003015900000000
    VV10 Nonlocal Energy =                  0.0000000000000000
    Total Energy =                       -151.5397114889129568



Properties will be evaluated at   0.000000,   0.000000,   0.000000 [a0]

Properties computed using the SCF density matrix

  Nuclear Dipole Moment: [e a0]
     X:    58.8017      Y:    -5.5463      Z:    -0.4126

  Electronic Dipole Moment: [e a0]
     X:   -58.9037      Y:     4.4023      Z:    -0.0229

  Dipole Moment: [e a0]
     X:    -0.1020      Y:    -1.1440      Z:    -0.4355     Total:     1.2284

  Dipole Moment: [D]
     X:    -0.2592      Y:    -2.9078      Z:    -1.1070     Total:     3.1222


*** tstop() called on loro.prib.upf.edu at Sat Sep 29 16:37:57 2018
Module time:
	user time   =       2.42 seconds =       0.04 minutes
	system time =       0.06 seconds =       0.00 minutes
	total time  =          4 seconds =       0.07 minutes
Total time:
	user time   =      12.60 seconds =       0.21 minutes
	system time =       0.36 seconds =       0.01 minutes
	total time  =         18 seconds =       0.30 minutes

*** tstart() called on loro.prib.upf.edu
*** at Sat Sep 29 16:37:57 2018


         ------------------------------------------------------------
                                   SCF GRAD                          
                          Rob Parrish, Justin Turney,                
                       Andy Simmonett, and Alex Sokolov              
         ------------------------------------------------------------

  ==> Geometry <==

    Molecular point group: c1
    Full point group: C1

    Geometry (in Angstrom), charge = 0, multiplicity = 1:

       Center              X                  Y                   Z               Mass       
    ------------   -----------------  -----------------  -----------------  -----------------
         O            1.009018962084    -0.009060964483     0.043120402002    15.994914619560
         O            2.465521965892    -0.124724751586     0.005839673260    15.994914619560
         H            0.692108935539    -0.797184273143    -0.433369694021     1.007825032070
         H            2.628108136485    -1.067527010787    -0.176654381241     1.007825032070

  Nuclear repulsion =   36.482590580840984

  ==> Basis Set <==

  Basis Set: CC-PVDZ
    Blend: CC-PVDZ
    Number of shells: 18
    Number of basis function: 38
    Number of Cartesian functions: 40
    Spherical Harmonics?: true
    Max angular momentum: 2

  ==> DFJKGrad: Density-Fitted SCF Gradients <==

    Gradient:                    1
    J tasked:                  Yes
    K tasked:                  Yes
    wK tasked:                  No
    OpenMP threads:              1
    Integrals threads:           1
    Memory (MB):              3570
    Schwarz Cutoff:          0E+00
    Fitting Condition:       1E-12

   => Auxiliary Basis Set <=

  Basis Set: (CC-PVDZ AUX)
    Blend: CC-PVDZ-JKFIT
    Number of shells: 66
    Number of basis function: 186
    Number of Cartesian functions: 212
    Spherical Harmonics?: true
    Max angular momentum: 3

  ==> DFT Potential <==

   => Composite Functional: B3LYP-D3ZERO <= 

    B3LYP-d3zero Hyb-GGA Exchange-Correlation Functional

    P. J. Stephens, F. J. Devlin, C. F. Chabalowski, and M. J. Frisch, J. Phys. Chem. 98, 11623 (1994)

    Deriv               =              1
    GGA                 =           TRUE
    Meta                =          FALSE

    Exchange Hybrid     =           TRUE
    MP2 Hybrid          =          FALSE

   => Exchange Functionals <=

    0.0800   Slater exchange
    0.7200         Becke 88

   => Exact (HF) Exchange <=

    0.2000               HF 

   => Correlation Functionals <=

    0.1900   Vosko, Wilk & Nusair (VWN5_RPA)
    0.8100   Lee, Yang & Parr

   => Molecular Quadrature <=

    Radial Scheme       =       TREUTLER
    Pruning Scheme      =           FLAT
    Nuclear Scheme      =       TREUTLER

    BS radius alpha     =              1
    Pruning alpha       =              1
    Radial Points       =             75
    Spherical Points    =            302
    Total Points        =          88294
    Total Blocks        =            711
    Max Points          =            255
    Max Functions       =             38


  -Total Gradient:
     Atom            X                  Y                   Z
    ------   -----------------  -----------------  -----------------
       1       -0.001437100920     0.002303403128    -0.004076599888
       2        0.001533457450    -0.001221500855     0.004488375213
       3       -0.000207441416    -0.001753696678     0.003019081372
       4        0.000111164435     0.000672686325    -0.003430517134


*** tstop() called on loro.prib.upf.edu at Sat Sep 29 16:37:58 2018
Module time:
	user time   =       0.69 seconds =       0.01 minutes
	system time =       0.02 seconds =       0.00 minutes
	total time  =          1 seconds =       0.02 minutes
Total time:
	user time   =      13.30 seconds =       0.22 minutes
	system time =       0.38 seconds =       0.01 minutes
	total time  =         19 seconds =       0.32 minutes

			-----------------------------------------
			 OPTKING 2.0: for geometry optimizations 
			  - R.A. King,  Bethel University        
			-----------------------------------------
	At level 1: Red. Int., RFO, no backsteps, dynamic trust

	Previous internal coordinate definitions found.
	---Fragment 1 Geometry and Gradient---
	 O           1.9067695012       -0.0171227414        0.0814857505
	 O           4.6591612901       -0.2356956225        0.0110353832
	 H           1.3078963423       -1.5064599537       -0.8189500360
	 H           4.9664046256       -2.0173336898       -0.3338284007
	            -0.0014371009        0.0023034031       -0.0040765999
	             0.0015334574       -0.0012215009        0.0044883752
	            -0.0002074414       -0.0017536967        0.0030190814
	             0.0001111644        0.0006726863       -0.0034305171

	---Fragment 1 Intrafragment Coordinates---
	 - Coordinate -           - BOHR/RAD -       - ANG/DEG -
	 R(1,2)           =         2.761955	       1.461564
	 R(1,3)           =         1.840532	       0.973968
	 R(2,4)           =         1.840534	       0.973968
	 B(1,2,4)         =         1.821141	     104.343681
	 B(2,1,3)         =         1.821141	     104.343706
	*D(3,1,2,4)       =        -0.349066	     -20.000009

	Current energy   :      -151.5397114889

	Energy change for the previous step:
		Projected    :        -0.0000513919
		Actual       :        -0.0000542797

	Performing BFGS update.
	Previous computed or guess Hessian on step 1.
	Steps to be used in Hessian update: 3 2
	Taking RFO optimization step.
	Going to follow RFO solution 1.
	Using RFO vector 1.
	Norm of target step-size    0.00533
	Projected energy change by RFO approximation:        -0.0000100952

	Back-transformation to cartesian coordinates...
	Successfully converged to displaced geometry.

	Back-transformation to cartesian coordinates to adjust frozen coordinates...
	Successfully converged to displaced geometry.

	--- Internal Coordinate Step in ANG or DEG, aJ/ANG or AJ/DEG ---
	 ---------------------------------------------------------------------------
	   Coordinate                Previous        Force       Change         New 
	   ----------                --------       ------       ------       ------
	    1 R(1,2)          =      1.461564    -0.013642    -0.002799     1.458765
	    2 R(1,3)          =      0.973968    -0.000077    -0.000076     0.973891
	    3 R(2,4)          =      0.973968    -0.000083    -0.000076     0.973892
	    4 B(1,2,4)        =    104.343681    -0.000021    -0.026397   104.317284
	    5 B(2,1,3)        =    104.343706    -0.000021    -0.026434   104.317272
	    6 *D(3,1,2,4)     =    -20.000009     0.000000    -0.000000   -20.000009
	 ---------------------------------------------------------------------------
	Successfully symmetrized geometry.

  ==> Convergence Check <==

  Measures of convergence in internal coordinates in au.
  Criteria marked as inactive (o), active & met (*), and active & unmet ( ).
  ---------------------------------------------------------------------------------------------
   Step     Total Energy     Delta E     MAX Force     RMS Force      MAX Disp      RMS Disp   
  ---------------------------------------------------------------------------------------------
    Convergence Criteria    1.00e-06 *    3.00e-04 *             o    1.20e-03 *             o
  ---------------------------------------------------------------------------------------------
      4    -151.53971149   -5.43e-05      1.66e-03      6.94e-04 o    5.29e-03      2.18e-03 o  ~
  ---------------------------------------------------------------------------------------------

	Writing optimization data to binary file.
	Structure for next step:
	Cartesian Geometry (in Angstrom)
	    O     1.0104142329  -0.0092080373   0.0432318116
	    O     2.4641295519  -0.1245435838   0.0057412357
	    H     0.6939198676  -0.7974141180  -0.4332416060
	    H     2.6262943476  -1.0673312609  -0.1767954414
			--------------------------
			 OPTKING Finished Execution 
			--------------------------

    Structure for next step:
    Molecular point group: c1
    Full point group: C1

    Geometry (in Angstrom), charge = 0, multiplicity = 1:

    O            1.010414232917    -0.009208037319     0.043231811620
    O            2.464129551906    -0.124543583823     0.005741235706
    H            0.693919867608    -0.797414117977    -0.433241605961
    H            2.626294347569    -1.067331260881    -0.176795441364

gradient() will perform analytic gradient computation.

*** tstart() called on loro.prib.upf.edu
*** at Sat Sep 29 16:37:58 2018

   => Loading Basis Set <=

    Name: CC-PVDZ
    Role: ORBITAL
    Keyword: BASIS
    atoms 1-2 entry O          line   198 file /shared/joao/test_parameterize/miniconda3/share/psi4/basis/cc-pvdz.gbs 
    atoms 3-4 entry H          line    22 file /shared/joao/test_parameterize/miniconda3/share/psi4/basis/cc-pvdz.gbs 


         ---------------------------------------------------------
                                   SCF
            by Justin Turney, Rob Parrish, Andy Simmonett
                             and Daniel Smith
                              RKS Reference
                        1 Threads,   5100 MiB Core
         ---------------------------------------------------------

  ==> Geometry <==

    Molecular point group: c1
    Full point group: C1

    Geometry (in Angstrom), charge = 0, multiplicity = 1:

       Center              X                  Y                   Z               Mass       
    ------------   -----------------  -----------------  -----------------  -----------------
         O            1.010414232917    -0.009208037319     0.043231811620    15.994914619560
         O            2.464129551906    -0.124543583823     0.005741235706    15.994914619560
         H            0.693919867608    -0.797414117977    -0.433241605961     1.007825032070
         H            2.626294347569    -1.067331260881    -0.176795441364     1.007825032070

  Running in c1 symmetry.

  Rotational constants: A =      9.95738  B =      0.13871  C =      0.13691 [cm^-1]
  Rotational constants: A = 298514.83117  B =   4158.39275  C =   4104.53945 [MHz]
  Nuclear repulsion =   36.534548532783482

  Charge       = 0
  Multiplicity = 1
  Electrons    = 18
  Nalpha       = 9
  Nbeta        = 9

  ==> Algorithm <==

  SCF Algorithm Type is DF.
  DIIS enabled.
  MOM disabled.
  Fractional occupation disabled.
  Guess Type is READ.
  Energy threshold   = 1.00e-08
  Density threshold  = 1.00e-08
  Integral threshold = 0.00e+00

  ==> Primary Basis <==

  Basis Set: CC-PVDZ
    Blend: CC-PVDZ
    Number of shells: 18
    Number of basis function: 38
    Number of Cartesian functions: 40
    Spherical Harmonics?: true
    Max angular momentum: 2

  ==> DFT Potential <==

   => Composite Functional: B3LYP-D3ZERO <= 

    B3LYP-d3zero Hyb-GGA Exchange-Correlation Functional

    P. J. Stephens, F. J. Devlin, C. F. Chabalowski, and M. J. Frisch, J. Phys. Chem. 98, 11623 (1994)

    Deriv               =              1
    GGA                 =           TRUE
    Meta                =          FALSE

    Exchange Hybrid     =           TRUE
    MP2 Hybrid          =          FALSE

   => Exchange Functionals <=

    0.0800   Slater exchange
    0.7200         Becke 88

   => Exact (HF) Exchange <=

    0.2000               HF 

   => Correlation Functionals <=

    0.1900   Vosko, Wilk & Nusair (VWN5_RPA)
    0.8100   Lee, Yang & Parr

   => Molecular Quadrature <=

    Radial Scheme       =       TREUTLER
    Pruning Scheme      =           FLAT
    Nuclear Scheme      =       TREUTLER

    BS radius alpha     =              1
    Pruning alpha       =              1
    Radial Points       =             75
    Spherical Points    =            302
    Total Points        =          88294
    Total Blocks        =            710
    Max Points          =            255
    Max Functions       =             38

   => -D3ZERO: Empirical Dispersion <=

    Grimme's -D3 (zero-damping) Dispersion Correction
    Grimme S.; Antony J.; Ehrlich S.; Krieg H. (2010), J. Chem. Phys., 132: 154104

        S6 =   1.000000E+00
        S8 =   1.703000E+00
       SR6 =   1.261000E+00
       SR8 =   1.000000E+00
    ALPHA6 =   1.400000E+01

   => Loading Basis Set <=

    Name: (CC-PVDZ AUX)
    Role: JKFIT
    Keyword: DF_BASIS_SCF
    atoms 1-2 entry O          line   221 file /shared/joao/test_parameterize/miniconda3/share/psi4/basis/cc-pvdz-jkfit.gbs 
    atoms 3-4 entry H          line    51 file /shared/joao/test_parameterize/miniconda3/share/psi4/basis/cc-pvdz-jkfit.gbs 

  Reading orbitals from file 180, no projection.

  ==> Pre-Iterations <==

   -------------------------------------------------------
    Irrep   Nso     Nmo     Nalpha   Nbeta   Ndocc  Nsocc
   -------------------------------------------------------
     A         38      38       0       0       0       0
   -------------------------------------------------------
    Total      38      38       9       9       9       0
   -------------------------------------------------------

  ==> Integral Setup <==

  DFHelper Memory: AOs need 0.003 [GiB]; user supplied 3.486 [GiB]. Using in-core AOs.

  ==> MemDFJK: Density-Fitted J/K Matrices <==

    J tasked:                   Yes
    K tasked:                   Yes
    wK tasked:                   No
    OpenMP threads:               1
    Memory (MB):               3570
    Algorithm:                 Core
    Schwarz Cutoff:           1E-12
    Mask sparsity (%):       0.0000
    Fitting Condition:        1E-12

   => Auxiliary Basis Set <=

  Basis Set: (CC-PVDZ AUX)
    Blend: CC-PVDZ-JKFIT
    Number of shells: 66
    Number of basis function: 186
    Number of Cartesian functions: 212
    Spherical Harmonics?: true
    Max angular momentum: 3

  Minimum eigenvalue in the overlap matrix is 2.4953858636E-02.
  Using Symmetric Orthogonalization.

  SCF Guess: Orbitals guess was supplied from a previous computation.

  ==> Iterations <==

                           Total Energy        Delta E     RMS |[F,P]|

   @DF-RKS iter   0:  -151.54106447664404   -1.51541e+02   1.42762e-04 
   @DF-RKS iter   1:  -151.53971538758151    1.34909e-03   3.84849e-05 
   @DF-RKS iter   2:  -151.53971588753933   -4.99958e-07   1.97321e-05 DIIS
   @DF-RKS iter   3:  -151.53971607056135   -1.83022e-07   3.53262e-06 DIIS
   @DF-RKS iter   4:  -151.53971607721658   -6.65523e-09   2.70016e-07 DIIS
   @DF-RKS iter   5:  -151.53971607726777   -5.11875e-11   4.32819e-08 DIIS
   @DF-RKS iter   6:  -151.53971607726899   -1.22213e-12   8.73762e-09 DIIS

  ==> Post-Iterations <==

    Orbital Energies [Eh]
    ---------------------

    Doubly Occupied:                                                      

       1A    -19.190074     2A    -19.190045     3A     -1.108371  
       4A     -0.893758     5A     -0.562654     6A     -0.418463  
       7A     -0.404327     8A     -0.361979     9A     -0.248475  

    Virtual:                                                              

      10A      0.011577    11A      0.021904    12A      0.128253  
      13A      0.553450    14A      0.577366    15A      0.859669  
      16A      0.869146    17A      0.941254    18A      0.941477  
      19A      0.985121    20A      1.061622    21A      1.250730  
      22A      1.265473    23A      1.334191    24A      1.501216  
      25A      1.547144    26A      1.809197    27A      2.028840  
      28A      2.096890    29A      2.320822    30A      2.377181  
      31A      2.626953    32A      2.861073    33A      2.927416  
      34A      2.980822    35A      3.178779    36A      3.526987  
      37A      3.543743    38A      3.792192  

    Final Occupation by Irrep:
              A 
    DOCC [     9 ]

  Energy converged.

  @DF-RKS Final Energy:  -151.53971607726899

   => Energetics <=

    Nuclear Repulsion Energy =             36.5345485327834822
    One-Electron Energy =                -281.0108899043588622
    Two-Electron Energy =                 107.3943995577560599
    DFT Exchange-Correlation Energy =     -14.4574761734496651
    Empirical Dispersion Energy =          -0.0002980900000000
    VV10 Nonlocal Energy =                  0.0000000000000000
    Total Energy =                       -151.5397160772689915



Properties will be evaluated at   0.000000,   0.000000,   0.000000 [a0]

Properties computed using the SCF density matrix

  Nuclear Dipole Moment: [e a0]
     X:    58.8018      Y:    -5.5459      Z:    -0.4124

  Electronic Dipole Moment: [e a0]
     X:   -58.9038      Y:     4.4019      Z:    -0.0231

  Dipole Moment: [e a0]
     X:    -0.1020      Y:    -1.1440      Z:    -0.4355     Total:     1.2283

  Dipole Moment: [D]
     X:    -0.2592      Y:    -2.9077      Z:    -1.1070     Total:     3.1220


*** tstop() called on loro.prib.upf.edu at Sat Sep 29 16:38:00 2018
Module time:
	user time   =       1.75 seconds =       0.03 minutes
	system time =       0.06 seconds =       0.00 minutes
	total time  =          2 seconds =       0.03 minutes
Total time:
	user time   =      15.06 seconds =       0.25 minutes
	system time =       0.44 seconds =       0.01 minutes
	total time  =         21 seconds =       0.35 minutes

*** tstart() called on loro.prib.upf.edu
*** at Sat Sep 29 16:38:00 2018


         ------------------------------------------------------------
                                   SCF GRAD                          
                          Rob Parrish, Justin Turney,                
                       Andy Simmonett, and Alex Sokolov              
         ------------------------------------------------------------

  ==> Geometry <==

    Molecular point group: c1
    Full point group: C1

    Geometry (in Angstrom), charge = 0, multiplicity = 1:

       Center              X                  Y                   Z               Mass       
    ------------   -----------------  -----------------  -----------------  -----------------
         O            1.010414232917    -0.009208037319     0.043231811620    15.994914619560
         O            2.464129551906    -0.124543583823     0.005741235706    15.994914619560
         H            0.693919867608    -0.797414117977    -0.433241605961     1.007825032070
         H            2.626294347569    -1.067331260881    -0.176795441364     1.007825032070

  Nuclear repulsion =   36.534548532783482

  ==> Basis Set <==

  Basis Set: CC-PVDZ
    Blend: CC-PVDZ
    Number of shells: 18
    Number of basis function: 38
    Number of Cartesian functions: 40
    Spherical Harmonics?: true
    Max angular momentum: 2

  ==> DFJKGrad: Density-Fitted SCF Gradients <==

    Gradient:                    1
    J tasked:                  Yes
    K tasked:                  Yes
    wK tasked:                  No
    OpenMP threads:              1
    Integrals threads:           1
    Memory (MB):              3570
    Schwarz Cutoff:          0E+00
    Fitting Condition:       1E-12

   => Auxiliary Basis Set <=

  Basis Set: (CC-PVDZ AUX)
    Blend: CC-PVDZ-JKFIT
    Number of shells: 66
    Number of basis function: 186
    Number of Cartesian functions: 212
    Spherical Harmonics?: true
    Max angular momentum: 3

  ==> DFT Potential <==

   => Composite Functional: B3LYP-D3ZERO <= 

    B3LYP-d3zero Hyb-GGA Exchange-Correlation Functional

    P. J. Stephens, F. J. Devlin, C. F. Chabalowski, and M. J. Frisch, J. Phys. Chem. 98, 11623 (1994)

    Deriv               =              1
    GGA                 =           TRUE
    Meta                =          FALSE

    Exchange Hybrid     =           TRUE
    MP2 Hybrid          =          FALSE

   => Exchange Functionals <=

    0.0800   Slater exchange
    0.7200         Becke 88

   => Exact (HF) Exchange <=

    0.2000               HF 

   => Correlation Functionals <=

    0.1900   Vosko, Wilk & Nusair (VWN5_RPA)
    0.8100   Lee, Yang & Parr

   => Molecular Quadrature <=

    Radial Scheme       =       TREUTLER
    Pruning Scheme      =           FLAT
    Nuclear Scheme      =       TREUTLER

    BS radius alpha     =              1
    Pruning alpha       =              1
    Radial Points       =             75
    Spherical Points    =            302
    Total Points        =          88294
    Total Blocks        =            710
    Max Points          =            255
    Max Functions       =             38


  -Total Gradient:
     Atom            X                  Y                   Z
    ------   -----------------  -----------------  -----------------
       1       -0.000034908652     0.002244192959    -0.004071167686
       2        0.000141701910    -0.001044714368     0.004527722332
       3       -0.000000097703    -0.001836701058     0.003010649783
       4       -0.000106601004     0.000638282870    -0.003466800743


*** tstop() called on loro.prib.upf.edu at Sat Sep 29 16:38:01 2018
Module time:
	user time   =       0.69 seconds =       0.01 minutes
	system time =       0.01 seconds =       0.00 minutes
	total time  =          1 seconds =       0.02 minutes
Total time:
	user time   =      15.75 seconds =       0.26 minutes
	system time =       0.45 seconds =       0.01 minutes
	total time  =         22 seconds =       0.37 minutes

			-----------------------------------------
			 OPTKING 2.0: for geometry optimizations 
			  - R.A. King,  Bethel University        
			-----------------------------------------
	At level 1: Red. Int., RFO, no backsteps, dynamic trust

	Previous internal coordinate definitions found.
	---Fragment 1 Geometry and Gradient---
	 O           1.9094061810       -0.0174006688        0.0816962842
	 O           4.6565300091       -0.2353532650        0.0108493631
	 H           1.3113185079       -1.5068942975       -0.8187079846
	 H           4.9629770613       -2.0169637761       -0.3340949657
	            -0.0000349087        0.0022441930       -0.0040711677
	             0.0001417019       -0.0010447144        0.0045277223
	            -0.0000000977       -0.0018367011        0.0030106498
	            -0.0001066010        0.0006382829       -0.0034668007

	---Fragment 1 Intrafragment Coordinates---
	 - Coordinate -           - BOHR/RAD -       - ANG/DEG -
	 R(1,2)           =         2.756667	       1.458765
	 R(1,3)           =         1.840388	       0.973891
	 R(2,4)           =         1.840389	       0.973892
	 B(1,2,4)         =         1.820680	     104.317284
	 B(2,1,3)         =         1.820680	     104.317272
	*D(3,1,2,4)       =        -0.349066	     -20.000009

	Current energy   :      -151.5397160773

	Energy change for the previous step:
		Projected    :        -0.0000100952
		Actual       :        -0.0000045884

	Performing BFGS update.
	Previous computed or guess Hessian on step 1.
	Steps to be used in Hessian update: 4 3
	Taking RFO optimization step.
	Going to follow RFO solution 1.
	Using RFO vector 1.
	Norm of target step-size    0.00102
	Projected energy change by RFO approximation:        -0.0000002542

	Back-transformation to cartesian coordinates...
	Successfully converged to displaced geometry.

	Back-transformation to cartesian coordinates to adjust frozen coordinates...
	Successfully converged to displaced geometry.

	--- Internal Coordinate Step in ANG or DEG, aJ/ANG or AJ/DEG ---
	 ---------------------------------------------------------------------------
	   Coordinate                Previous        Force       Change         New 
	   ----------                --------       ------       ------       ------
	    1 R(1,2)          =      1.458765    -0.000333    -0.000200     1.458565
	    2 R(1,3)          =      0.973891    -0.000111    -0.000007     0.973884
	    3 R(2,4)          =      0.973892    -0.000116    -0.000007     0.973885
	    4 B(1,2,4)        =    104.317284     0.000010     0.038585   104.355869
	    5 B(2,1,3)        =    104.317272     0.000010     0.038589   104.355861
	    6 *D(3,1,2,4)     =    -20.000009     0.000000     0.000000   -20.000009
	 ---------------------------------------------------------------------------
	Successfully symmetrized geometry.

  ==> Convergence Check <==

  Measures of convergence in internal coordinates in au.
  Criteria marked as inactive (o), active & met (*), and active & unmet ( ).
  ---------------------------------------------------------------------------------------------
   Step     Total Energy     Delta E     MAX Force     RMS Force      MAX Disp      RMS Disp   
  ---------------------------------------------------------------------------------------------
    Convergence Criteria    1.00e-06 *    3.00e-04 *             o    1.20e-03 *             o
  ---------------------------------------------------------------------------------------------
      5    -151.53971608   -4.59e-06      1.34e-04 *    7.95e-05 o    6.74e-04 *    4.18e-04 o  ~
  ---------------------------------------------------------------------------------------------


  **** Optimization is complete! (in 5 steps) ****

  ==> Optimization Summary <==

  Measures of convergence in internal coordinates in au.
  --------------------------------------------------------------------------------------------------------------- ~
   Step         Total Energy             Delta E       MAX Force       RMS Force        MAX Disp        RMS Disp  ~
  --------------------------------------------------------------------------------------------------------------- ~
      1    -151.535116769440   -151.535116769440      0.03448850      0.02245377      0.19662010      0.11642105  ~
      2    -151.538216502983     -0.003099733543      0.02006203      0.01216366      0.05559059      0.03523461  ~
      3    -151.539657209190     -0.001440706207      0.00556691      0.00256823      0.01149199      0.00562050  ~
      4    -151.539711488913     -0.000054279723      0.00165589      0.00069402      0.00528863      0.00217702  ~
      5    -151.539716077269     -0.000004588356      0.00013403      0.00007951      0.00067350      0.00041841  ~
  --------------------------------------------------------------------------------------------------------------- ~

	Writing optimization data to binary file.
	Final energy is   -151.5397160772690
	Final (previous) structure:
	Cartesian Geometry (in Angstrom)
	    O     1.0104142329  -0.0092080373   0.0432318116
	    O     2.4641295519  -0.1245435838   0.0057412357
	    H     0.6939198676  -0.7974141180  -0.4332416060
	    H     2.6262943476  -1.0673312609  -0.1767954414
	Saving final (previous) structure.
	Removing binary optimization data file.
			--------------------------
			 OPTKING Finished Execution 
			--------------------------

    Final optimized geometry and variables:
    Molecular point group: c1
    Full point group: C1

    Geometry (in Angstrom), charge = 0, multiplicity = 1:

    O            1.010414232917    -0.009208037319     0.043231811620
    O            2.464129551906    -0.124543583823     0.005741235706
    H            0.693919867608    -0.797414117977    -0.433241605961
    H            2.626294347569    -1.067331260881    -0.176795441364

	Removing binary optimization data file.
	Cleaning optimization helper files.


Properties will be evaluated at   0.000000,   0.000000,   0.000000 [a0]
OEProp: No title given, name of density matrix used for the following properties is 'SCF density'
  Nuclear Dipole Moment: [e a0]
     X:    58.8018      Y:    -5.5459      Z:    -0.4124

  Electronic Dipole Moment: [e a0]
     X:   -58.9038      Y:     4.4019      Z:    -0.0231

  Dipole Moment: [e a0]
     X:    -0.1020      Y:    -1.1440      Z:    -0.4355     Total:     1.2283

  Dipole Moment: [D]
     X:    -0.2592      Y:    -2.9077      Z:    -1.1070     Total:     3.1220

  Quadrupole Moment: [D A]
    XX:   -11.3909     YY:    -8.4544     ZZ:   -11.8041
    XY:    -5.0895     XZ:    -1.2900     YZ:     1.2281

  Traceless Quadrupole Moment: [D A]
    XX:    -0.8411     YY:     2.0954     ZZ:    -1.2543
    XY:    -5.0895     XZ:    -1.2900     YZ:     1.2281

  Mulliken Charges: (a.u.)
   Center  Symbol    Alpha    Beta     Spin     Total
       1     O     4.08099  4.08099  0.00000 -0.16198
       2     O     4.08099  4.08099  0.00000 -0.16198
       3     H     0.41901  0.41901  0.00000  0.16198
       4     H     0.41901  0.41901  0.00000  0.16198

   Total alpha =  9.00000, Total beta =  9.00000, Total charge = -0.00000


    Psi4 stopped on: Saturday, 29 September 2018 04:38PM
    Psi4 wall time for execution: 0:00:22.75

*** Psi4 exiting successfully. Buy a developer a beer!
