
    -----------------------------------------------------------------------
          Psi4: An Open-Source Ab Initio Electronic Structure Package
                               Psi4 1.2.1 release

                         Git: Rev {HEAD} 406f4de 


    R. M. Parrish, L. A. Burns, D. G. A. Smith, A. C. Simmonett,
    A. E. DePrince III, E. G. Hohenstein, U. Bozkaya, A. Yu. Sokolov,
    R. Di Remigio, R. M. Richard, J. F. Gonthier, A. M. James,
    H. R. McAlexander, A. Kumar, M. Saitow, X. Wang, B. P. Pritchard,
    P. Verma, H. F. Schaefer III, K. Patkowski, R. A. King, E. F. Valeev,
    F. A. Evangelista, J. M. Turney, T. D. Crawford, and C. D. Sherrill,
    J. Chem. Theory Comput. 13(7) pp 3185--3197 (2017).
    (doi: 10.1021/acs.jctc.7b00174)


                         Additional Contributions by
    P. Kraus, H. Kruse, M. H. Lechner, M. C. Schieber, and R. A. Shaw

    -----------------------------------------------------------------------


    Psi4 started on: Saturday, 29 September 2018 04:49PM

    Process ID: 4211
    Host:       loro.prib.upf.edu
    PSIDATADIR: /shared/joao/test_parameterize/miniconda3/share/psi4
    Memory:     500.0 MiB
    Threads:    1
    
  ==> Input File <==

--------------------------------------------------------------------------
set_num_threads(1)
set_memory('5348 MB')

set { scf_mem_safety_factor 0.7 }

set { reference rks }
set { basis cc-pVDZ }

molecule MOL {
    0 1
    noreorient
    nocom
    symmetry c1
    O    1.141000   0.017000   0.083000
    C    2.558000   0.086000  -0.005000
    C    3.192000  -0.789000   1.067000
    O    3.397438  -0.034231   2.255061
    H    0.789000   0.590000  -0.620000
    H    2.874000   1.128000   0.115000
    H    2.871000  -0.243000  -1.001000
    H    4.153116  -1.181820   0.720756
    H    2.545324  -1.644063   1.294056
    H    3.802115  -0.638220   2.901837
}

set optking { frozen_dihedral = (" 1 2 3 4 ") }

energy, wfn = energy('B3LYP-D3', return_wfn=True)

import os
os.chdir(os.environ['HTMD_PSI4_WORKDIR'])

oeprop(wfn, 'DIPOLE', 'QUADRUPOLE', 'MULLIKEN_CHARGES')

with open('psi4out.xyz', 'w') as f:
    f.write('10 ' )
    f.write('%.12f\n' % energy)
    f.write(MOL.save_string_xyz())
--------------------------------------------------------------------------
  Threads set to 1 by Python driver.

  Memory set to   4.981 GiB by Python driver.

*** tstart() called on loro.prib.upf.edu
*** at Sat Sep 29 16:49:18 2018

   => Loading Basis Set <=

    Name: CC-PVDZ
    Role: ORBITAL
    Keyword: BASIS
    atoms 1, 4 entry O          line   198 file /shared/joao/test_parameterize/miniconda3/share/psi4/basis/cc-pvdz.gbs 
    atoms 2-3  entry C          line   138 file /shared/joao/test_parameterize/miniconda3/share/psi4/basis/cc-pvdz.gbs 
    atoms 5-10 entry H          line    22 file /shared/joao/test_parameterize/miniconda3/share/psi4/basis/cc-pvdz.gbs 


         ---------------------------------------------------------
                                   SCF
            by Justin Turney, Rob Parrish, Andy Simmonett
                             and Daniel Smith
                              RKS Reference
                        1 Threads,   5100 MiB Core
         ---------------------------------------------------------

  ==> Geometry <==

    Molecular point group: c1
    Full point group: C1

    Geometry (in Angstrom), charge = 0, multiplicity = 1:

       Center              X                  Y                   Z               Mass       
    ------------   -----------------  -----------------  -----------------  -----------------
         O            1.141000000000     0.017000000000     0.083000000000    15.994914619560
         C            2.558000000000     0.086000000000    -0.005000000000    12.000000000000
         C            3.192000000000    -0.789000000000     1.067000000000    12.000000000000
         O            3.397438000000    -0.034231000000     2.255061000000    15.994914619560
         H            0.789000000000     0.590000000000    -0.620000000000     1.007825032070
         H            2.874000000000     1.128000000000     0.115000000000     1.007825032070
         H            2.871000000000    -0.243000000000    -1.001000000000     1.007825032070
         H            4.153116000000    -1.181820000000     0.720756000000     1.007825032070
         H            2.545324000000    -1.644063000000     1.294056000000     1.007825032070
         H            3.802115000000    -0.638220000000     2.901837000000     1.007825032070

  Running in c1 symmetry.

  Rotational constants: A =      0.39122  B =      0.03062  C =      0.02945 [cm^-1]
  Rotational constants: A =  11728.38930  B =    917.98657  C =    882.91006 [MHz]
  Nuclear repulsion =  130.845836226449620

  Charge       = 0
  Multiplicity = 1
  Electrons    = 34
  Nalpha       = 17
  Nbeta        = 17

  ==> Algorithm <==

  SCF Algorithm Type is DF.
  DIIS enabled.
  MOM disabled.
  Fractional occupation disabled.
  Guess Type is SAD.
  Energy threshold   = 1.00e-06
  Density threshold  = 1.00e-06
  Integral threshold = 0.00e+00

  ==> Primary Basis <==

  Basis Set: CC-PVDZ
    Blend: CC-PVDZ
    Number of shells: 42
    Number of basis function: 86
    Number of Cartesian functions: 90
    Spherical Harmonics?: true
    Max angular momentum: 2

  ==> DFT Potential <==

   => Composite Functional: B3LYP-D3ZERO <= 

    B3LYP-d3zero Hyb-GGA Exchange-Correlation Functional

    P. J. Stephens, F. J. Devlin, C. F. Chabalowski, and M. J. Frisch, J. Phys. Chem. 98, 11623 (1994)

    Deriv               =              1
    GGA                 =           TRUE
    Meta                =          FALSE

    Exchange Hybrid     =           TRUE
    MP2 Hybrid          =          FALSE

   => Exchange Functionals <=

    0.0800   Slater exchange
    0.7200         Becke 88

   => Exact (HF) Exchange <=

    0.2000               HF 

   => Correlation Functionals <=

    0.1900   Vosko, Wilk & Nusair (VWN5_RPA)
    0.8100   Lee, Yang & Parr

   => Molecular Quadrature <=

    Radial Scheme       =       TREUTLER
    Pruning Scheme      =           FLAT
    Nuclear Scheme      =       TREUTLER

    BS radius alpha     =              1
    Pruning alpha       =              1
    Radial Points       =             75
    Spherical Points    =            302
    Total Points        =         222567
    Total Blocks        =           1729
    Max Points          =            256
    Max Functions       =             86

   => -D3ZERO: Empirical Dispersion <=

    Grimme's -D3 (zero-damping) Dispersion Correction
    Grimme S.; Antony J.; Ehrlich S.; Krieg H. (2010), J. Chem. Phys., 132: 154104

        S6 =   1.000000E+00
        S8 =   1.703000E+00
       SR6 =   1.261000E+00
       SR8 =   1.000000E+00
    ALPHA6 =   1.400000E+01

   => Loading Basis Set <=

    Name: (CC-PVDZ AUX)
    Role: JKFIT
    Keyword: DF_BASIS_SCF
    atoms 1, 4 entry O          line   221 file /shared/joao/test_parameterize/miniconda3/share/psi4/basis/cc-pvdz-jkfit.gbs 
    atoms 2-3  entry C          line   121 file /shared/joao/test_parameterize/miniconda3/share/psi4/basis/cc-pvdz-jkfit.gbs 
    atoms 5-10 entry H          line    51 file /shared/joao/test_parameterize/miniconda3/share/psi4/basis/cc-pvdz-jkfit.gbs 

  ==> Pre-Iterations <==

   -------------------------------------------------------
    Irrep   Nso     Nmo     Nalpha   Nbeta   Ndocc  Nsocc
   -------------------------------------------------------
     A         86      86       0       0       0       0
   -------------------------------------------------------
    Total      86      86      17      17      17       0
   -------------------------------------------------------

  ==> Integral Setup <==

  DFHelper Memory: AOs need 0.030 [GiB]; user supplied 3.486 [GiB]. Using in-core AOs.

  ==> MemDFJK: Density-Fitted J/K Matrices <==

    J tasked:                   Yes
    K tasked:                   Yes
    wK tasked:                   No
    OpenMP threads:               1
    Memory (MB):               3570
    Algorithm:                 Core
    Schwarz Cutoff:           1E-12
    Mask sparsity (%):       0.0270
    Fitting Condition:        1E-12

   => Auxiliary Basis Set <=

  Basis Set: (CC-PVDZ AUX)
    Blend: CC-PVDZ-JKFIT
    Number of shells: 150
    Number of basis function: 418
    Number of Cartesian functions: 474
    Spherical Harmonics?: true
    Max angular momentum: 3

  Minimum eigenvalue in the overlap matrix is 5.0850185936E-03.
  Using Symmetric Orthogonalization.

  SCF Guess: Superposition of Atomic Densities via on-the-fly atomic UHF.

  ==> Iterations <==

                           Total Energy        Delta E     RMS |[F,P]|

   @DF-RKS iter   0:  -230.87603612302365   -2.30876e+02   4.01077e-02 
   @DF-RKS iter   1:  -230.17036073508618    7.05675e-01   5.19819e-03 
   @DF-RKS iter   2:  -230.12552257308334    4.48382e-02   6.76139e-03 DIIS
   @DF-RKS iter   3:  -230.25393192700486   -1.28409e-01   7.25799e-04 DIIS
   @DF-RKS iter   4:  -230.25521533544361   -1.28341e-03   2.95124e-04 DIIS
   @DF-RKS iter   5:  -230.25551093452788   -2.95599e-04   4.31122e-05 DIIS
   @DF-RKS iter   6:  -230.25551711287642   -6.17835e-06   5.01679e-06 DIIS
   @DF-RKS iter   7:  -230.25551718531446   -7.24380e-08   2.36256e-06 DIIS
   @DF-RKS iter   8:  -230.25551720117411   -1.58597e-08   7.36656e-07 DIIS

  ==> Post-Iterations <==

    Orbital Energies [Eh]
    ---------------------

    Doubly Occupied:                                                      

       1A    -19.126312     2A    -19.126274     3A    -10.226432  
       4A    -10.226245     5A     -1.016609     6A     -1.002125  
       7A     -0.733321     8A     -0.603000     9A     -0.513390  
      10A     -0.512853    11A     -0.424026    12A     -0.422597  
      13A     -0.408629    14A     -0.344140    15A     -0.318569  
      16A     -0.266917    17A     -0.254381  

    Virtual:                                                              

      18A      0.049323    19A      0.061798    20A      0.104364  
      21A      0.123838    22A      0.130785    23A      0.144766  
      24A      0.192456    25A      0.227519    26A      0.229677  
      27A      0.469076    28A      0.489199    29A      0.499064  
      30A      0.503255    31A      0.539793    32A      0.576162  
      33A      0.604434    34A      0.623070    35A      0.640886  
      36A      0.646423    37A      0.683210    38A      0.692742  
      39A      0.863313    40A      0.885984    41A      0.919087  
      42A      0.990398    43A      0.991568    44A      1.051136  
      45A      1.061539    46A      1.175198    47A      1.233057  
      48A      1.237995    49A      1.283124    50A      1.307941  
      51A      1.350883    52A      1.357906    53A      1.493865  
      54A      1.521166    55A      1.565690    56A      1.591085  
      57A      1.616475    58A      1.618726    59A      1.666218  
      60A      1.695875    61A      1.740787    62A      1.786962  
      63A      1.895310    64A      1.895739    65A      1.945434  
      66A      1.977758    67A      2.008740    68A      2.047689  
      69A      2.109625    70A      2.169736    71A      2.211090  
      72A      2.304599    73A      2.410988    74A      2.415725  
      75A      2.487864    76A      2.522638    77A      2.929814  
      78A      2.938722    79A      2.966912    80A      3.063668  
      81A      3.096947    82A      3.122593    83A      3.180380  
      84A      3.217844    85A      3.669960    86A      3.716153  

    Final Occupation by Irrep:
              A 
    DOCC [    17 ]

  Energy converged.

  @DF-RKS Final Energy:  -230.25551720117411

   => Energetics <=

    Nuclear Repulsion Energy =            130.8458362264496202
    One-Electron Energy =                -573.5185448594913851
    Two-Electron Energy =                 236.9604209366919463
    DFT Exchange-Correlation Energy =     -24.5389073648242757
    Empirical Dispersion Energy =          -0.0043221400000000
    VV10 Nonlocal Energy =                  0.0000000000000000
    Total Energy =                       -230.2555172011741149



Properties will be evaluated at   0.000000,   0.000000,   0.000000 [a0]

Properties computed using the SCF density matrix

  Nuclear Dipole Moment: [e a0]
     X:   165.9974      Y:   -11.9902      Z:    53.8329

  Electronic Dipole Moment: [e a0]
     X:  -165.5852      Y:    11.7561      Z:   -54.2686

  Dipole Moment: [e a0]
     X:     0.4122      Y:    -0.2341      Z:    -0.4358     Total:     0.6439

  Dipole Moment: [D]
     X:     1.0478      Y:    -0.5951      Z:    -1.1076     Total:     1.6367


*** tstop() called on loro.prib.upf.edu at Sat Sep 29 16:49:33 2018
Module time:
	user time   =      12.81 seconds =       0.21 minutes
	system time =       0.24 seconds =       0.00 minutes
	total time  =         15 seconds =       0.25 minutes
Total time:
	user time   =      12.81 seconds =       0.21 minutes
	system time =       0.24 seconds =       0.00 minutes
	total time  =         15 seconds =       0.25 minutes


Properties will be evaluated at   0.000000,   0.000000,   0.000000 [a0]
OEProp: No title given, name of density matrix used for the following properties is 'SCF density'
  Nuclear Dipole Moment: [e a0]
     X:   165.9974      Y:   -11.9902      Z:    53.8329

  Electronic Dipole Moment: [e a0]
     X:  -165.5852      Y:    11.7561      Z:   -54.2686

  Dipole Moment: [e a0]
     X:     0.4122      Y:    -0.2341      Z:    -0.4358     Total:     0.6439

  Dipole Moment: [D]
     X:     1.0478      Y:    -0.5951      Z:    -1.1076     Total:     1.6367

  Quadrupole Moment: [D A]
    XX:   -19.0355     YY:   -23.1937     ZZ:   -22.4120
    XY:    -5.0013     XZ:     1.1194     YZ:    -4.7162

  Traceless Quadrupole Moment: [D A]
    XX:     2.5115     YY:    -1.6466     ZZ:    -0.8649
    XY:    -5.0013     XZ:     1.1194     YZ:    -4.7162

  Mulliken Charges: (a.u.)
   Center  Symbol    Alpha    Beta     Spin     Total
       1     O     4.13797  4.13797  0.00000 -0.27593
       2     C     2.93139  2.93139  0.00000  0.13722
       3     C     2.93156  2.93156  0.00000  0.13689
       4     O     4.13822  4.13822  0.00000 -0.27643
       5     H     0.43100  0.43100  0.00000  0.13799
       6     H     0.49532  0.49532  0.00000  0.00936
       7     H     0.50426  0.50426  0.00000 -0.00851
       8     H     0.50412  0.50412  0.00000 -0.00824
       9     H     0.49522  0.49522  0.00000  0.00956
      10     H     0.43095  0.43095  0.00000  0.13810

   Total alpha = 17.00000, Total beta = 17.00000, Total charge = -0.00000


    Psi4 stopped on: Saturday, 29 September 2018 04:49PM
    Psi4 wall time for execution: 0:00:15.70

*** Psi4 exiting successfully. Buy a developer a beer!
