
    -----------------------------------------------------------------------
          Psi4: An Open-Source Ab Initio Electronic Structure Package
                               Psi4 1.2.1 release

                         Git: Rev {HEAD} 406f4de 


    R. M. Parrish, L. A. Burns, D. G. A. Smith, A. C. Simmonett,
    A. E. DePrince III, E. G. Hohenstein, U. Bozkaya, A. Yu. Sokolov,
    R. Di Remigio, R. M. Richard, J. F. Gonthier, A. M. James,
    H. R. McAlexander, A. Kumar, M. Saitow, X. Wang, B. P. Pritchard,
    P. Verma, H. F. Schaefer III, K. Patkowski, R. A. King, E. F. Valeev,
    F. A. Evangelista, J. M. Turney, T. D. Crawford, and C. D. Sherrill,
    J. Chem. Theory Comput. 13(7) pp 3185--3197 (2017).
    (doi: 10.1021/acs.jctc.7b00174)


                         Additional Contributions by
    P. Kraus, H. Kruse, M. H. Lechner, M. C. Schieber, and R. A. Shaw

    -----------------------------------------------------------------------


    Psi4 started on: Saturday, 29 September 2018 05:09PM

    Process ID: 13259
    Host:       loro.prib.upf.edu
    PSIDATADIR: /shared/joao/test_parameterize/miniconda3/share/psi4
    Memory:     500.0 MiB
    Threads:    1
    
  ==> Input File <==

--------------------------------------------------------------------------
set_num_threads(1)
set_memory('5348 MB')

set { scf_mem_safety_factor 0.7 }

set { reference rks }
set { basis cc-pVDZ }

molecule MOL {
    0 1
    noreorient
    nocom
    symmetry c1
    O    1.050400   0.042900  -0.048100
    C    2.474100   0.047400  -0.029000
    C    3.002600  -1.068900  -0.932000
    N    4.462700  -1.072400  -1.006800
    H    0.760400   0.728400   0.578000
    H    2.809900  -0.097900   1.003200
    H    2.817400   1.026800  -0.378600
    H    2.581000  -0.963300  -1.938400
    H    2.653800  -2.036400  -0.553400
    H    4.757474  -0.619804  -1.871524
    H    4.785452  -2.037631  -1.073216
}

set optking { frozen_dihedral = (" 2 3 4 10 ") }

energy, wfn = energy('B3LYP-D3', return_wfn=True)

import os
os.chdir(os.environ['HTMD_PSI4_WORKDIR'])

oeprop(wfn, 'DIPOLE', 'QUADRUPOLE', 'MULLIKEN_CHARGES')

with open('psi4out.xyz', 'w') as f:
    f.write('11 ' )
    f.write('%.12f\n' % energy)
    f.write(MOL.save_string_xyz())
--------------------------------------------------------------------------
  Threads set to 1 by Python driver.

  Memory set to   4.981 GiB by Python driver.

*** tstart() called on loro.prib.upf.edu
*** at Sat Sep 29 17:09:29 2018

   => Loading Basis Set <=

    Name: CC-PVDZ
    Role: ORBITAL
    Keyword: BASIS
    atoms 1    entry O          line   198 file /shared/joao/test_parameterize/miniconda3/share/psi4/basis/cc-pvdz.gbs 
    atoms 2-3  entry C          line   138 file /shared/joao/test_parameterize/miniconda3/share/psi4/basis/cc-pvdz.gbs 
    atoms 4    entry N          line   168 file /shared/joao/test_parameterize/miniconda3/share/psi4/basis/cc-pvdz.gbs 
    atoms 5-11 entry H          line    22 file /shared/joao/test_parameterize/miniconda3/share/psi4/basis/cc-pvdz.gbs 


         ---------------------------------------------------------
                                   SCF
            by Justin Turney, Rob Parrish, Andy Simmonett
                             and Daniel Smith
                              RKS Reference
                        1 Threads,   5100 MiB Core
         ---------------------------------------------------------

  ==> Geometry <==

    Molecular point group: c1
    Full point group: C1

    Geometry (in Angstrom), charge = 0, multiplicity = 1:

       Center              X                  Y                   Z               Mass       
    ------------   -----------------  -----------------  -----------------  -----------------
         O            1.050400000000     0.042900000000    -0.048100000000    15.994914619560
         C            2.474100000000     0.047400000000    -0.029000000000    12.000000000000
         C            3.002600000000    -1.068900000000    -0.932000000000    12.000000000000
         N            4.462700000000    -1.072400000000    -1.006800000000    14.003074004780
         H            0.760400000000     0.728400000000     0.578000000000     1.007825032070
         H            2.809900000000    -0.097900000000     1.003200000000     1.007825032070
         H            2.817400000000     1.026800000000    -0.378600000000     1.007825032070
         H            2.581000000000    -0.963300000000    -1.938400000000     1.007825032070
         H            2.653800000000    -2.036400000000    -0.553400000000     1.007825032070
         H            4.757474000000    -0.619804000000    -1.871524000000     1.007825032070
         H            4.785452000000    -2.037631000000    -1.073216000000     1.007825032070

  Running in c1 symmetry.

  Rotational constants: A =      0.72041  B =      0.02757  C =      0.02692 [cm^-1]
  Rotational constants: A =  21597.22667  B =    826.44267  C =    807.14252 [MHz]
  Nuclear repulsion =  130.268669318244122

  Charge       = 0
  Multiplicity = 1
  Electrons    = 34
  Nalpha       = 17
  Nbeta        = 17

  ==> Algorithm <==

  SCF Algorithm Type is DF.
  DIIS enabled.
  MOM disabled.
  Fractional occupation disabled.
  Guess Type is SAD.
  Energy threshold   = 1.00e-06
  Density threshold  = 1.00e-06
  Integral threshold = 0.00e+00

  ==> Primary Basis <==

  Basis Set: CC-PVDZ
    Blend: CC-PVDZ
    Number of shells: 45
    Number of basis function: 91
    Number of Cartesian functions: 95
    Spherical Harmonics?: true
    Max angular momentum: 2

  ==> DFT Potential <==

   => Composite Functional: B3LYP-D3ZERO <= 

    B3LYP-d3zero Hyb-GGA Exchange-Correlation Functional

    P. J. Stephens, F. J. Devlin, C. F. Chabalowski, and M. J. Frisch, J. Phys. Chem. 98, 11623 (1994)

    Deriv               =              1
    GGA                 =           TRUE
    Meta                =          FALSE

    Exchange Hybrid     =           TRUE
    MP2 Hybrid          =          FALSE

   => Exchange Functionals <=

    0.0800   Slater exchange
    0.7200         Becke 88

   => Exact (HF) Exchange <=

    0.2000               HF 

   => Correlation Functionals <=

    0.1900   Vosko, Wilk & Nusair (VWN5_RPA)
    0.8100   Lee, Yang & Parr

   => Molecular Quadrature <=

    Radial Scheme       =       TREUTLER
    Pruning Scheme      =           FLAT
    Nuclear Scheme      =       TREUTLER

    BS radius alpha     =              1
    Pruning alpha       =              1
    Radial Points       =             75
    Spherical Points    =            302
    Total Points        =         245097
    Total Blocks        =           1901
    Max Points          =            256
    Max Functions       =             91

   => -D3ZERO: Empirical Dispersion <=

    Grimme's -D3 (zero-damping) Dispersion Correction
    Grimme S.; Antony J.; Ehrlich S.; Krieg H. (2010), J. Chem. Phys., 132: 154104

        S6 =   1.000000E+00
        S8 =   1.703000E+00
       SR6 =   1.261000E+00
       SR8 =   1.000000E+00
    ALPHA6 =   1.400000E+01

   => Loading Basis Set <=

    Name: (CC-PVDZ AUX)
    Role: JKFIT
    Keyword: DF_BASIS_SCF
    atoms 1    entry O          line   221 file /shared/joao/test_parameterize/miniconda3/share/psi4/basis/cc-pvdz-jkfit.gbs 
    atoms 2-3  entry C          line   121 file /shared/joao/test_parameterize/miniconda3/share/psi4/basis/cc-pvdz-jkfit.gbs 
    atoms 4    entry N          line   171 file /shared/joao/test_parameterize/miniconda3/share/psi4/basis/cc-pvdz-jkfit.gbs 
    atoms 5-11 entry H          line    51 file /shared/joao/test_parameterize/miniconda3/share/psi4/basis/cc-pvdz-jkfit.gbs 

  ==> Pre-Iterations <==

   -------------------------------------------------------
    Irrep   Nso     Nmo     Nalpha   Nbeta   Ndocc  Nsocc
   -------------------------------------------------------
     A         91      91       0       0       0       0
   -------------------------------------------------------
    Total      91      91      17      17      17       0
   -------------------------------------------------------

  ==> Integral Setup <==

  DFHelper Memory: AOs need 0.036 [GiB]; user supplied 3.486 [GiB]. Using in-core AOs.

  ==> MemDFJK: Density-Fitted J/K Matrices <==

    J tasked:                   Yes
    K tasked:                   Yes
    wK tasked:                   No
    OpenMP threads:               1
    Memory (MB):               3570
    Algorithm:                 Core
    Schwarz Cutoff:           1E-12
    Mask sparsity (%):       0.5796
    Fitting Condition:        1E-12

   => Auxiliary Basis Set <=

  Basis Set: (CC-PVDZ AUX)
    Blend: CC-PVDZ-JKFIT
    Number of shells: 159
    Number of basis function: 441
    Number of Cartesian functions: 499
    Spherical Harmonics?: true
    Max angular momentum: 3

  Minimum eigenvalue in the overlap matrix is 4.6032076323E-03.
  Using Symmetric Orthogonalization.

  SCF Guess: Superposition of Atomic Densities via on-the-fly atomic UHF.

  ==> Iterations <==

                           Total Energy        Delta E     RMS |[F,P]|

   @DF-RKS iter   0:  -210.84321534366370   -2.10843e+02   3.66901e-02 
   @DF-RKS iter   1:  -210.21351006567795    6.29705e-01   7.06827e-03 
   @DF-RKS iter   2:  -210.07163816957041    1.41872e-01   9.62723e-03 DIIS
   @DF-RKS iter   3:  -210.38938019773801   -3.17742e-01   5.60486e-04 DIIS
   @DF-RKS iter   4:  -210.39002300415353   -6.42806e-04   3.57984e-04 DIIS
   @DF-RKS iter   5:  -210.39048121329441   -4.58209e-04   4.86623e-05 DIIS
   @DF-RKS iter   6:  -210.39048745298740   -6.23969e-06   2.35349e-05 DIIS
   @DF-RKS iter   7:  -210.39048945129679   -1.99831e-06   2.19311e-06 DIIS
   @DF-RKS iter   8:  -210.39048946848834   -1.71916e-08   7.38022e-07 DIIS

  ==> Post-Iterations <==

    Orbital Energies [Eh]
    ---------------------

    Doubly Occupied:                                                      

       1A    -19.123239     2A    -14.305969     3A    -10.217592  
       4A    -10.201685     5A     -1.005674     6A     -0.876957  
       7A     -0.710346     8A     -0.592483     9A     -0.502342  
      10A     -0.495021    11A     -0.438866    12A     -0.423745  
      13A     -0.392524    14A     -0.348819    15A     -0.323703  
      16A     -0.256825    17A     -0.234659  

    Virtual:                                                              

      18A      0.051595    19A      0.059170    20A      0.094539  
      21A      0.123120    22A      0.126615    23A      0.146153  
      24A      0.186236    25A      0.204455    26A      0.249429  
      27A      0.264724    28A      0.428565    29A      0.452873  
      30A      0.495938    31A      0.513010    32A      0.558202  
      33A      0.576005    34A      0.610950    35A      0.614547  
      36A      0.638367    37A      0.655330    38A      0.662871  
      39A      0.679925    40A      0.701957    41A      0.812886  
      42A      0.841770    43A      0.870511    44A      0.914227  
      45A      0.936696    46A      0.974048    47A      0.996318  
      48A      1.066848    49A      1.199565    50A      1.216181  
      51A      1.260639    52A      1.280535    53A      1.287989  
      54A      1.349290    55A      1.373000    56A      1.498992  
      57A      1.542536    58A      1.603534    59A      1.616371  
      60A      1.632228    61A      1.657105    62A      1.679544  
      63A      1.712763    64A      1.730178    65A      1.756745  
      66A      1.772358    67A      1.794047    68A      1.852927  
      69A      1.908514    70A      1.967088    71A      2.015133  
      72A      2.040249    73A      2.062178    74A      2.142953  
      75A      2.149159    76A      2.243217    77A      2.295045  
      78A      2.388100    79A      2.421495    80A      2.432376  
      81A      2.489447    82A      2.525074    83A      2.598838  
      84A      2.661113    85A      2.817679    86A      2.965640  
      87A      2.990799    88A      3.064679    89A      3.112101  
      90A      3.205187    91A      3.698841  

    Final Occupation by Irrep:
              A 
    DOCC [    17 ]

  Energy converged.

  @DF-RKS Final Energy:  -210.39048946848834

   => Energetics <=

    Nuclear Repulsion Energy =            130.2686693182441218
    One-Electron Energy =                -543.5353959284934717
    Two-Electron Energy =                 226.3678555714880360
    DFT Exchange-Correlation Energy =     -23.4868930297270104
    Empirical Dispersion Energy =          -0.0047254000000000
    VV10 Nonlocal Energy =                  0.0000000000000000
    Total Energy =                       -210.3904894684883402



Properties will be evaluated at   0.000000,   0.000000,   0.000000 [a0]

Properties computed using the SCF density matrix

  Nuclear Dipole Moment: [e a0]
     X:   177.0063      Y:   -32.6780      Z:   -32.9423

  Electronic Dipole Moment: [e a0]
     X:  -176.7814      Y:    32.7568      Z:    32.8384

  Dipole Moment: [e a0]
     X:     0.2250      Y:     0.0789      Z:    -0.1040     Total:     0.2601

  Dipole Moment: [D]
     X:     0.5718      Y:     0.2004      Z:    -0.2642     Total:     0.6610


*** tstop() called on loro.prib.upf.edu at Sat Sep 29 17:09:46 2018
Module time:
	user time   =      15.18 seconds =       0.25 minutes
	system time =       0.21 seconds =       0.00 minutes
	total time  =         17 seconds =       0.28 minutes
Total time:
	user time   =      15.18 seconds =       0.25 minutes
	system time =       0.21 seconds =       0.00 minutes
	total time  =         17 seconds =       0.28 minutes


Properties will be evaluated at   0.000000,   0.000000,   0.000000 [a0]
OEProp: No title given, name of density matrix used for the following properties is 'SCF density'
  Nuclear Dipole Moment: [e a0]
     X:   177.0063      Y:   -32.6780      Z:   -32.9423

  Electronic Dipole Moment: [e a0]
     X:  -176.7814      Y:    32.7568      Z:    32.8384

  Dipole Moment: [e a0]
     X:     0.2250      Y:     0.0789      Z:    -0.1040     Total:     0.2601

  Dipole Moment: [D]
     X:     0.5718      Y:     0.2004      Z:    -0.2642     Total:     0.6610

  Quadrupole Moment: [D A]
    XX:   -24.5957     YY:   -22.0302     ZZ:   -22.4012
    XY:    -3.1119     XZ:    -5.5046     YZ:     2.1709

  Traceless Quadrupole Moment: [D A]
    XX:    -1.5866     YY:     0.9789     ZZ:     0.6078
    XY:    -3.1119     XZ:    -5.5046     YZ:     2.1709

  Mulliken Charges: (a.u.)
   Center  Symbol    Alpha    Beta     Spin     Total
       1     O     4.14109  4.14109  0.00000 -0.28218
       2     C     2.92170  2.92170  0.00000  0.15659
       3     C     2.99577  2.99577  0.00000  0.00846
       4     N     3.58893  3.58893  0.00000 -0.17786
       5     H     0.43016  0.43016  0.00000  0.13968
       6     H     0.50117  0.50117  0.00000 -0.00235
       7     H     0.50439  0.50439  0.00000 -0.00878
       8     H     0.49756  0.49756  0.00000  0.00488
       9     H     0.49215  0.49215  0.00000  0.01571
      10     H     0.46388  0.46388  0.00000  0.07224
      11     H     0.46320  0.46320  0.00000  0.07360

   Total alpha = 17.00000, Total beta = 17.00000, Total charge =  0.00000


    Psi4 stopped on: Saturday, 29 September 2018 05:09PM
    Psi4 wall time for execution: 0:00:17.29

*** Psi4 exiting successfully. Buy a developer a beer!
